/*--------------------------------*- C++ -*----------------------------------*\
| =========                 |                                                 |
| \\      /  F ield         | OpenFOAM: The Open Source CFD Toolbox           |
|  \\    /   O peration     | Version:  dev                                   |
|   \\  /    A nd           | Web:      www.OpenFOAM.org                      |
|    \\/     M anipulation  |                                                 |
\*---------------------------------------------------------------------------*/
FoamFile
{
    version     2.0;
    format      ascii;
    class       volScalarField;
    location    "100";
    object      CO2;
}
// * * * * * * * * * * * * * * * * * * * * * * * * * * * * * * * * * * * * * //

dimensions      [0 0 0 0 0 0 0];

internalField   nonuniform List<scalar> 
4000
(
5.80749e-25
1.61265e-24
2.4856e-24
3.11873e-24
3.38905e-24
3.31215e-24
2.93923e-24
2.38426e-24
1.77775e-24
1.22178e-24
7.79297e-25
4.62758e-25
2.57394e-25
1.33012e-25
6.52963e-26
3.01936e-26
1.33207e-26
5.7334e-27
2.38375e-27
7.45005e-28
2.24672e-24
6.1106e-24
9.25348e-24
1.14793e-23
1.23763e-23
1.20241e-23
1.06034e-23
8.54266e-24
6.32907e-24
4.32774e-24
2.74198e-24
1.62162e-24
8.96478e-25
4.61719e-25
2.26021e-25
1.04366e-25
4.60499e-26
1.98637e-26
8.28776e-27
2.61442e-27
5.4025e-24
1.45109e-23
2.16114e-23
2.60972e-23
2.76044e-23
2.64207e-23
2.29776e-23
1.82771e-23
1.33745e-23
9.04356e-24
5.67638e-24
3.32511e-24
1.82137e-24
9.3226e-25
4.53627e-25
2.08628e-25
9.20743e-26
3.96942e-26
1.66574e-26
5.25337e-27
1.16043e-23
3.10236e-23
4.49016e-23
5.25653e-23
5.41525e-23
5.06322e-23
4.311e-23
3.363e-23
2.41829e-23
1.60958e-23
9.95556e-24
5.75102e-24
3.10944e-24
1.57654e-24
7.59717e-25
3.47627e-25
1.53249e-25
6.58751e-26
2.77014e-26
8.6475e-27
2.38301e-23
6.35497e-23
8.96668e-23
1.01653e-22
1.01513e-22
9.20511e-23
7.62819e-23
5.80315e-23
4.07838e-23
2.65732e-23
1.61161e-23
9.14292e-24
4.86087e-24
2.43217e-24
1.1576e-24
5.25266e-25
2.30549e-25
9.86453e-26
4.13409e-26
1.26637e-26
4.80001e-23
1.27656e-22
1.76634e-22
1.9435e-22
1.87712e-22
1.64285e-22
1.31712e-22
9.72474e-23
6.64513e-23
4.21761e-23
2.49604e-23
1.38373e-23
7.20643e-24
3.54435e-24
1.66071e-24
7.44104e-25
3.24094e-25
1.37549e-25
5.71201e-26
1.70201e-26
9.62745e-23
2.5525e-22
3.46958e-22
3.71559e-22
3.46691e-22
2.92441e-22
2.25937e-22
1.61197e-22
1.0664e-22
6.56166e-23
3.7707e-23
2.03216e-23
1.03267e-23
4.9663e-24
2.28126e-24
1.00542e-24
4.32546e-25
1.81226e-25
7.41597e-26
2.13433e-26
1.93881e-22
5.11377e-22
6.84979e-22
7.15039e-22
6.44849e-22
5.23621e-22
3.89267e-22
2.6743e-22
1.70476e-22
1.01245e-22
5.62328e-23
2.93211e-23
1.44552e-23
6.76518e-24
3.03323e-24
1.30902e-24
5.53535e-25
2.27798e-25
9.11871e-26
2.53019e-26
3.94546e-22
1.0343e-21
1.36457e-21
1.39002e-21
1.21389e-21
9.49212e-22
6.78266e-22
4.47446e-22
2.73976e-22
1.56301e-22
8.34561e-23
4.19468e-23
1.99408e-23
9.03551e-24
3.93223e-24
1.65348e-24
6.83232e-25
2.7484e-25
1.06815e-25
2.8498e-26
8.14892e-22
2.1209e-21
2.75508e-21
2.73976e-21
2.31909e-21
1.74744e-21
1.1992e-21
7.58229e-22
4.44713e-22
2.42933e-22
1.24254e-22
5.98398e-23
2.73072e-23
1.19049e-23
4.99964e-24
2.03804e-24
8.17347e-25
3.19653e-25
1.19721e-25
3.06257e-26
1.71421e-21
4.42474e-21
5.65537e-21
5.49242e-21
4.50672e-21
3.2744e-21
2.1576e-21
1.30664e-21
7.32646e-22
3.8217e-22
1.86555e-22
8.56536e-23
3.73309e-23
1.55545e-23
6.26596e-24
2.45957e-24
9.51378e-25
3.59701e-25
1.28982e-25
3.14585e-26
3.68147e-21
9.41406e-21
1.18298e-20
1.12172e-20
8.92665e-21
6.25529e-21
3.95901e-21
2.29497e-21
1.22872e-21
6.1076e-22
2.83442e-22
1.23669e-22
5.1151e-23
2.02522e-23
7.77798e-24
2.91756e-24
1.08175e-24
3.93013e-25
1.34208e-25
3.10623e-26
8.09399e-21
2.04712e-20
2.52664e-20
2.3376e-20
1.80474e-20
1.21969e-20
7.41274e-21
4.1126e-21
2.10067e-21
9.93039e-22
4.37413e-22
1.80636e-22
7.05858e-23
2.64078e-23
9.59595e-24
3.41502e-24
1.20615e-24
4.18638e-25
1.35561e-25
2.97481e-26
1.82593e-20
4.56436e-20
5.52368e-20
4.98011e-20
3.72595e-20
2.42906e-20
1.41718e-20
7.52352e-21
3.66504e-21
1.6468e-21
6.86741e-22
2.67708e-22
9.84329e-23
3.46125e-23
1.18145e-23
3.96293e-24
1.32481e-24
4.36776e-25
1.33736e-25
2.78284e-26
4.22937e-20
1.04356e-19
1.23662e-19
1.08474e-19
7.85707e-20
4.93643e-20
2.76742e-20
1.40518e-20
6.52603e-21
2.78516e-21
1.09825e-21
4.03188e-22
1.39075e-22
4.57387e-23
1.45779e-23
4.58041e-24
1.44032e-24
4.48715e-25
1.29693e-25
2.56145e-26
1.00858e-19
2.4506e-19
2.83916e-19
2.4197e-19
1.69445e-19
1.02592e-19
5.51723e-20
2.67979e-20
1.18596e-20
4.80462e-21
1.79005e-21
6.18214e-22
1.99502e-22
6.1126e-23
1.8108e-23
5.30144e-24
1.55876e-24
4.56708e-25
1.24483e-25
2.33135e-26
2.47851e-19
5.92239e-19
6.69347e-19
5.53134e-19
3.74025e-19
2.17868e-19
1.12366e-19
5.21712e-20
2.1992e-20
8.45095e-21
2.97372e-21
9.64314e-22
2.90873e-22
8.27973e-23
2.27513e-23
6.17826e-24
1.69035e-24
4.63338e-25
1.18856e-25
2.11464e-26
6.2879e-19
1.47561e-18
1.62299e-18
1.29772e-18
8.45786e-19
4.73337e-19
2.33867e-19
1.03678e-19
4.15634e-20
1.51315e-20
5.02838e-21
1.53016e-21
4.31212e-22
1.1404e-22
2.90245e-23
7.29053e-24
1.84876e-24
4.72071e-25
1.13692e-25
1.92091e-26
1.6508e-18
3.79747e-18
4.05396e-18
3.12922e-18
1.96116e-18
1.05222e-18
4.97235e-19
2.1011e-19
8.00258e-20
2.75893e-20
8.63847e-21
2.46948e-21
6.49683e-22
1.59936e-22
3.77204e-23
8.761e-24
2.05509e-24
4.87145e-25
1.0988e-25
1.76338e-26
4.49006e-18
1.00963e-17
1.04395e-17
7.76279e-18
4.66769e-18
2.39663e-18
1.08036e-18
4.33966e-19
1.56772e-19
5.1162e-20
1.50837e-20
4.04705e-21
9.96076e-22
2.28665e-22
5.01285e-23
1.07811e-23
2.33387e-24
5.13062e-25
1.08175e-25
1.65207e-26
1.26932e-17
2.77805e-17
2.77347e-17
1.98024e-17
1.13977e-17
5.58356e-18
2.39743e-18
9.1519e-19
3.12985e-19
9.63888e-20
2.6759e-20
6.73955e-21
1.55425e-21
3.33868e-22
6.8252e-23
1.36148e-23
2.72998e-24
5.55797e-25
1.09426e-25
1.59132e-26
3.72717e-17
7.92798e-17
7.61434e-17
5.20238e-17
2.8576e-17
1.33246e-17
5.43459e-18
1.96713e-18
6.36122e-19
1.8468e-19
4.82567e-20
1.14162e-20
2.47153e-21
4.98304e-22
9.53407e-23
1.7744e-23
3.30751e-24
6.25571e-25
1.15306e-25
1.60092e-26
1.13814e-16
2.34417e-16
2.15814e-16
1.40815e-16
7.35742e-17
3.26031e-17
1.26092e-17
4.31161e-18
1.31766e-18
3.5976e-19
8.84303e-20
1.96736e-20
4.01245e-21
7.61283e-22
1.36833e-22
2.39223e-23
4.17454e-24
7.37969e-25
1.28043e-25
1.70641e-26
3.62553e-16
7.20389e-16
6.33608e-16
3.92715e-16
1.94808e-16
8.18404e-17
2.99329e-17
9.65762e-18
2.78032e-18
7.14489e-19
1.65045e-19
3.4607e-20
6.65341e-21
1.19196e-21
2.02544e-22
3.34958e-23
5.5162e-24
9.19681e-25
1.516e-25
1.9558e-26
1.20839e-15
2.30222e-15
1.92636e-15
1.1303e-15
5.30026e-16
2.10315e-16
7.26377e-17
2.21145e-17
5.9897e-18
1.44691e-18
3.14394e-19
6.21179e-20
1.12966e-20
1.91932e-21
3.10152e-22
4.88835e-23
7.66671e-24
1.21891e-24
1.93339e-25
2.44025e-26
4.22464e-15
7.66783e-15
6.0703e-15
3.35862e-15
1.48387e-15
5.54517e-16
1.80344e-16
5.17402e-17
1.31716e-17
2.99455e-18
6.13201e-19
1.14406e-19
1.97183e-20
3.18861e-21
4.9316e-22
7.45577e-23
1.12558e-23
1.7289e-24
2.6723e-25
3.33298e-26
1.55474e-14
2.66684e-14
1.98602e-14
1.03214e-14
4.28217e-15
1.50258e-15
4.58866e-16
1.23793e-16
2.96644e-17
6.34964e-18
1.22652e-18
2.16789e-19
3.55474e-20
5.50378e-21
8.1908e-22
1.19672e-22
1.75532e-23
2.63761e-24
4.0152e-25
5.00078e-26
6.05295e-14
9.71789e-14
6.76327e-14
3.28431e-14
1.27417e-14
4.18794e-15
1.19833e-15
3.03566e-16
6.83831e-17
1.37964e-17
2.52253e-18
4.23882e-19
6.65742e-20
9.92856e-21
1.42984e-21
2.0339e-22
2.92322e-23
4.34041e-24
6.55754e-25
8.16246e-26
2.5061e-13
3.72392e-13
2.40484e-13
1.085e-13
3.92014e-14
1.20389e-14
3.22721e-15
7.64553e-16
1.62079e-16
3.0875e-17
5.3624e-18
8.61041e-19
1.30065e-19
1.87796e-20
2.63755e-21
3.68322e-22
5.224e-23
7.67861e-24
1.155e-24
1.42851e-25
1.10884e-12
1.50618e-12
8.95896e-13
3.73505e-13
1.25203e-13
3.57285e-14
8.95926e-15
1.98803e-15
3.96498e-16
7.16233e-17
1.18677e-17
1.83067e-18
2.67533e-19
3.76143e-20
5.18132e-21
7.13499e-22
1.00144e-22
1.45482e-23
2.16626e-24
2.65436e-25
5.2628e-12
6.45073e-12
3.50764e-12
1.34478e-12
4.1689e-13
1.10508e-13
2.58333e-14
5.36845e-15
1.00784e-15
1.73245e-16
2.74989e-17
4.09781e-18
5.82071e-19
8.01498e-20
1.08878e-20
1.48005e-21
2.05132e-22
2.92985e-23
4.28298e-24
5.15349e-25
2.68496e-11
2.93301e-11
1.44739e-11
5.08067e-12
1.45366e-12
3.57685e-13
7.77925e-14
1.51641e-14
2.6854e-15
4.4018e-16
6.72128e-17
9.71404e-18
1.34775e-18
1.82293e-19
2.43925e-20
3.27135e-21
4.46001e-22
6.22673e-23
8.8565e-24
1.03252e-24
1.47451e-10
1.41872e-10
6.31697e-11
2.02311e-11
5.31479e-12
1.21643e-12
2.4665e-13
4.51822e-14
7.5785e-15
1.18585e-15
1.74893e-16
2.45575e-17
3.33287e-18
4.42442e-19
5.81565e-20
7.6409e-21
1.01736e-21
1.37935e-22
1.88977e-23
2.12152e-24
8.73982e-10
7.31932e-10
2.92388e-10
8.53343e-11
2.06434e-11
4.38585e-12
8.31289e-13
1.43443e-13
2.28597e-14
3.41782e-15
4.86824e-16
6.63621e-17
8.79569e-18
1.13995e-18
1.46234e-19
1.87164e-20
2.41234e-21
3.14885e-22
4.11166e-23
4.4176e-24
5.6071e-09
4.05067e-09
1.44465e-09
3.83975e-10
8.55498e-11
1.68902e-11
3.001e-12
4.89175e-13
7.41835e-14
1.06087e-14
1.45208e-15
1.91585e-16
2.46028e-17
3.08997e-18
3.83678e-19
4.74039e-20
5.84946e-21
7.2859e-22
9.03047e-23
9.2675e-24
3.90321e-08
2.41117e-08
7.68036e-09
1.84568e-09
3.81463e-10
6.99547e-11
1.1683e-11
1.80067e-12
2.59517e-13
3.54032e-14
4.62201e-15
5.84222e-16
7.20465e-17
8.68911e-18
1.0351e-18
1.2213e-19
1.4334e-20
1.69481e-21
1.98286e-22
1.94469e-23
2.98539e-07
1.57696e-07
4.43377e-08
9.70152e-09
1.84776e-09
3.15086e-10
4.92733e-11
7.14976e-12
9.73476e-13
1.25722e-13
1.55435e-14
1.85989e-15
2.17697e-16
2.49443e-17
2.81608e-18
3.15249e-19
3.5134e-20
3.92491e-21
4.33975e-22
4.02937e-23
2.53437e-06
1.14197e-06
2.82811e-07
5.60561e-08
9.78657e-09
1.54329e-09
2.24106e-10
3.03252e-11
3.85974e-12
4.66762e-13
5.4081e-14
6.06235e-15
6.64868e-16
7.17024e-17
7.63898e-18
8.06284e-19
8.51482e-20
8.97954e-21
9.34387e-22
8.2675e-23
2.47039e-05
9.52231e-06
2.04081e-06
3.60751e-07
5.66442e-08
8.1681e-09
1.08387e-09
1.34664e-10
1.57955e-11
1.76618e-12
1.89679e-13
1.97463e-14
2.0118e-15
2.02757e-16
2.02664e-17
2.01813e-18
2.01359e-19
2.00626e-20
1.97567e-21
1.66127e-22
0.000287022
9.36451e-05
1.66638e-05
2.55161e-06
3.5354e-07
4.52871e-08
5.40799e-09
6.05329e-10
6.44327e-11
6.58363e-12
6.49506e-13
6.24302e-14
5.89317e-15
5.52729e-16
5.1842e-17
4.87257e-18
4.60146e-19
4.34792e-20
4.06082e-21
3.24232e-22
0.00394607
0.00115331
0.000161149
1.97873e-05
2.29395e-06
2.52526e-07
2.62972e-08
2.60842e-09
2.48979e-10
2.30892e-11
2.08535e-12
1.84989e-13
1.62265e-14
1.42643e-15
1.26241e-16
1.12515e-17
1.00938e-18
9.06624e-20
8.04514e-21
6.15356e-22
0.0407775
0.0128101
0.00157028
0.000151309
1.41107e-05
1.28081e-06
1.13219e-07
9.89646e-09
8.45257e-10
7.14117e-11
5.95328e-12
4.92477e-13
4.06218e-14
3.37929e-15
2.87095e-16
2.45385e-17
2.1264e-18
1.82267e-19
1.53966e-20
1.12874e-21
0.101645
0.0583446
0.00883097
0.000788094
6.30588e-05
4.67628e-06
3.57414e-07
2.80431e-08
2.22904e-09
1.77519e-10
1.41363e-11
1.12569e-12
8.98647e-14
7.32265e-15
6.2465e-16
5.1583e-17
4.31173e-18
3.49345e-19
2.82387e-20
1.99297e-21
0.100041
0.132733
0.0222208
0.0020061
0.000155823
1.31765e-05
1.11038e-06
9.12652e-08
7.01037e-09
5.33108e-10
4.06375e-11
3.0937e-12
2.35899e-13
1.89247e-14
1.43796e-15
1.13432e-16
8.73925e-18
6.72026e-19
5.11703e-20
3.40773e-21
0.0949824
0.150599
0.0346917
0.00342528
0.000282588
2.3275e-05
1.97561e-06
1.67333e-07
1.43006e-08
1.17362e-09
9.29048e-11
7.17205e-12
5.42775e-13
3.94451e-14
2.82379e-15
2.11537e-16
1.56397e-17
1.17423e-18
8.59391e-20
5.534e-21
0.0901998
0.1504
0.0524853
0.00590519
0.000490658
4.04894e-05
3.40627e-06
2.8463e-07
2.33225e-08
1.89701e-09
1.51231e-10
1.18465e-11
9.06125e-13
6.63691e-14
4.9537e-15
3.55879e-16
2.57879e-17
1.84426e-18
1.32991e-19
8.43883e-21
0.0867659
0.14925
0.0679048
0.00953766
0.000850796
7.09076e-05
5.96129e-06
4.92411e-07
3.97502e-08
3.16816e-09
2.46886e-10
1.8951e-11
1.42572e-12
1.04823e-13
7.66192e-15
5.35731e-16
3.80426e-17
2.7651e-18
1.99485e-19
1.27082e-20
0.0839473
0.147418
0.0823808
0.0133245
0.00127264
0.000112707
9.961e-06
8.51526e-07
6.92462e-08
5.48781e-09
4.21566e-10
3.17242e-11
2.34019e-12
1.69617e-13
1.23356e-14
8.89821e-16
6.33798e-17
4.63823e-18
3.26101e-19
1.97714e-20
0.0815316
0.14581
0.0966225
0.0181373
0.00192586
0.000175073
1.57664e-05
1.38758e-06
1.16677e-07
9.39223e-09
7.27344e-10
5.41991e-11
3.92897e-12
2.80662e-13
1.98832e-14
1.49342e-15
1.07498e-16
7.3547e-18
4.94317e-19
2.89513e-20
0.0795151
0.144411
0.109568
0.0225545
0.00247571
0.000235636
2.22285e-05
2.0211e-06
1.74918e-07
1.44588e-08
1.15124e-09
8.76343e-11
6.42971e-12
4.58463e-13
3.1933e-14
2.2604e-15
1.56723e-16
1.05725e-17
7.17139e-19
4.14608e-20
0.0776972
0.143108
0.122387
0.0283858
0.00346253
0.000338336
3.1836e-05
2.91139e-06
2.55435e-07
2.13859e-08
1.72511e-09
1.32777e-10
9.83221e-12
7.04453e-13
5.05426e-14
3.41732e-15
2.31691e-16
1.56184e-17
1.0079e-18
5.65053e-20
0.0761481
0.141995
0.134045
0.0331687
0.00417206
0.000419876
4.11621e-05
3.88798e-06
3.48383e-07
2.96123e-08
2.42053e-09
1.88304e-10
1.40631e-11
1.01214e-12
7.11923e-14
4.69228e-15
3.11418e-16
2.08926e-17
1.34202e-18
7.41871e-20
0.0746964
0.140909
0.144808
0.0393996
0.00549713
0.000574609
5.62278e-05
5.29189e-06
4.75275e-07
4.05762e-08
3.32549e-09
2.5934e-10
1.93989e-11
1.39515e-12
9.67323e-14
6.71119e-15
4.44115e-16
2.84526e-17
1.75976e-18
9.55529e-20
0.073359
0.1401
0.156383
0.0450316
0.00645817
0.000685979
6.90665e-05
6.70139e-06
6.14816e-07
5.31814e-08
4.37415e-09
3.44734e-10
2.58451e-11
1.85707e-12
1.27102e-13
8.65431e-15
5.72544e-16
3.60528e-17
2.22994e-18
1.19434e-19
0.072056
0.139173
0.164681
0.0511666
0.00802033
0.000888659
9.06217e-05
8.81145e-06
8.08471e-07
6.99647e-08
5.7491e-09
4.5259e-10
3.38358e-11
2.42047e-12
1.66348e-13
1.11155e-14
7.08742e-16
4.45835e-17
2.67812e-18
1.40485e-19
0.0707396
0.137797
0.165293
0.055898
0.00930306
0.00106613
0.000110811
1.08869e-05
1.00651e-06
8.75214e-08
7.20333e-09
5.66562e-10
4.22295e-11
3.00755e-12
2.07783e-13
1.37316e-14
8.87526e-16
5.50292e-17
3.26227e-18
1.67098e-19
0.0694954
0.136371
0.16513
0.0605109
0.0107691
0.001288
0.00013554
1.34008e-05
1.24584e-06
1.0875e-07
8.96172e-09
7.04092e-10
5.22843e-11
3.69903e-12
2.48908e-13
1.62232e-14
1.03224e-15
6.36444e-17
3.72236e-18
1.88435e-19
0.0683675
0.134951
0.164705
0.0648227
0.0123249
0.00153466
0.000163159
1.62208e-05
1.51581e-06
1.32729e-07
1.09442e-08
8.58279e-10
6.34602e-11
4.46023e-12
2.99328e-13
1.95154e-14
1.227e-15
7.40022e-17
4.27792e-18
2.1388e-19
0.0673387
0.13349
0.164114
0.0692403
0.0139925
0.0018086
0.000194014
1.93745e-05
1.81773e-06
1.5947e-07
1.31441e-08
1.02794e-09
7.562e-11
5.27658e-12
3.515e-13
2.25393e-14
1.38996e-15
8.2914e-17
4.70486e-18
2.33069e-19
0.0663758
0.131966
0.163501
0.0740294
0.0157971
0.00211231
0.000227917
2.28315e-05
2.14976e-06
1.88844e-07
1.55479e-08
1.21156e-09
8.86046e-11
6.1336e-12
4.04827e-13
2.5543e-14
1.54891e-15
9.14327e-17
5.11979e-18
2.4841e-19
0.0654249
0.130349
0.162854
0.0791419
0.0177815
0.00245552
0.000265575
2.66426e-05
2.51471e-06
2.20914e-07
1.81432e-08
1.40652e-09
1.02184e-10
7.01339e-12
4.58102e-13
2.85962e-14
1.71303e-15
9.93774e-17
5.4747e-18
2.61929e-19
0.0645203
0.128616
0.162151
0.0846983
0.0200451
0.00284397
0.000306375
3.07188e-05
2.90514e-06
2.55142e-07
2.08924e-08
1.61055e-09
1.16144e-10
7.90199e-12
5.10327e-13
3.12949e-14
1.86025e-15
1.06756e-16
5.81333e-18
2.73475e-19
0.0636574
0.126897
0.161392
0.090773
0.0225152
0.0032856
0.000350834
3.51299e-05
3.3276e-06
2.91812e-07
2.37889e-08
1.82129e-09
1.30111e-10
8.76658e-12
5.59727e-13
3.40397e-14
1.98024e-15
1.11468e-16
6.01272e-18
2.80485e-19
0.062751
0.125124
0.160576
0.0971425
0.0253998
0.00380082
0.000397247
3.96967e-05
3.7672e-06
3.29772e-07
2.67544e-08
2.02871e-09
1.43965e-10
9.58215e-12
6.03692e-13
3.6139e-14
2.07128e-15
1.14992e-16
6.09643e-18
2.81289e-19
0.0619543
0.123427
0.159743
0.103873
0.0287962
0.00433467
0.000443944
4.4526e-05
4.23647e-06
3.69629e-07
2.97849e-08
2.23331e-09
1.57231e-10
1.03286e-11
6.41833e-13
3.7813e-14
2.15223e-15
1.17242e-16
6.15236e-18
2.79782e-19
0.0612287
0.122013
0.158858
0.111166
0.0324068
0.00493072
0.000493692
4.95324e-05
4.71403e-06
4.09492e-07
3.27714e-08
2.43574e-09
1.69783e-10
1.10243e-11
6.75875e-13
3.9375e-14
2.19522e-15
1.1781e-16
6.09798e-18
2.71481e-19
0.0604064
0.120597
0.15802
0.117941
0.0361412
0.00553121
0.000543583
5.478e-05
5.22777e-06
4.51838e-07
3.58615e-08
2.63762e-09
1.8156e-10
1.16205e-11
7.01027e-13
4.01221e-14
2.19873e-15
1.1683e-16
5.95495e-18
2.62176e-19
0.0598068
0.119916
0.157269
0.124123
0.0402678
0.00596488
0.000605346
5.91847e-05
5.65467e-06
4.86541e-07
3.83219e-08
2.78984e-09
1.8969e-10
1.19737e-11
7.1231e-13
4.01109e-14
2.16796e-15
1.1282e-16
5.65743e-18
2.45977e-19
0.0596866
0.120111
0.156652
0.130075
0.0441452
0.00618522
0.0006507
6.36356e-05
6.01521e-06
5.13859e-07
4.01766e-08
2.89826e-09
1.94982e-10
1.21527e-11
7.13446e-13
3.96639e-14
2.11445e-15
1.08414e-16
5.34988e-18
2.29502e-19
0.0598061
0.120512
0.156555
0.13276
0.0461313
0.00620408
0.000670437
6.73266e-05
6.36265e-06
5.42236e-07
4.21547e-08
3.01295e-09
2.00649e-10
1.23613e-11
7.16188e-13
3.92568e-14
2.05376e-15
1.03497e-16
5.02305e-18
2.10433e-19
0.0601559
0.121322
0.15659
0.132531
0.0462465
0.00609784
0.000663977
7.03023e-05
6.86056e-06
5.90986e-07
4.58399e-08
3.23989e-09
2.12793e-10
1.2897e-11
7.33788e-13
3.95568e-14
2.03021e-15
1.00707e-16
4.7614e-18
1.95211e-19
0.0608703
0.122596
0.156764
0.131021
0.0456208
0.0057306
0.000639841
7.5807e-05
7.75802e-06
6.84041e-07
5.30112e-08
3.67851e-09
2.36489e-10
1.40355e-11
7.81299e-13
4.12626e-14
2.05804e-15
9.95612e-17
4.56679e-18
1.82379e-19
0.0621999
0.124722
0.157194
0.127114
0.0435464
0.0050696
0.000639937
8.58001e-05
9.41961e-06
8.66789e-07
6.7393e-08
4.55389e-09
2.82717e-10
1.62427e-11
8.73998e-13
4.44254e-14
2.14775e-15
1.00305e-16
4.42256e-18
1.71067e-19
0.0633415
0.127076
0.15803
0.119605
0.0388748
0.00436469
0.000687946
0.000105364
1.26603e-05
1.23837e-06
9.7204e-08
6.35303e-09
3.74007e-10
2.03678e-11
1.04907e-12
5.09248e-14
2.4012e-15
1.06474e-16
4.46194e-18
1.67087e-19
0.064602
0.128592
0.158599
0.111568
0.0324749
0.00383308
0.00080821
0.00013802
1.77902e-05
1.86932e-06
1.51093e-07
9.72211e-09
5.41528e-10
2.75759e-11
1.33693e-12
6.22474e-14
2.73382e-15
1.16078e-16
4.678e-18
1.68034e-19
0.0662549
0.130989
0.15924
0.101089
0.0254962
0.00366352
0.00106085
0.000195094
2.61353e-05
2.93769e-06
2.47289e-07
1.59548e-08
8.5039e-10
4.03362e-11
1.81237e-12
7.80813e-14
3.28433e-15
1.33528e-16
5.11426e-18
1.77219e-19
0.0667697
0.133092
0.160596
0.0892218
0.0208339
0.00392345
0.00154557
0.000292369
4.02937e-05
4.91312e-06
4.31892e-07
2.8234e-08
1.44783e-09
6.42102e-11
2.63532e-12
1.04853e-13
4.08621e-15
1.5764e-16
5.85519e-18
1.94371e-19
0.0664117
0.13296
0.161169
0.0847561
0.019921
0.00484768
0.00227219
0.00045143
6.1227e-05
8.00292e-06
7.38903e-07
4.98002e-08
2.52465e-09
1.07399e-10
4.05697e-12
1.47851e-13
5.4198e-15
1.96733e-16
6.96063e-18
2.25772e-19
0.0654934
0.13132
0.161518
0.0861153
0.0210117
0.00692001
0.00387146
0.0007639
9.40663e-05
1.2501e-05
1.18617e-06
8.15936e-08
4.11777e-09
1.70234e-10
6.05678e-12
2.05535e-13
7.09225e-15
2.46243e-16
8.54429e-18
2.71234e-19
0.0641827
0.127219
0.161186
0.0941261
0.0262578
0.0114813
0.00663051
0.00128461
0.000155711
2.02502e-05
1.95778e-06
1.35469e-07
6.7352e-09
2.683e-10
9.00312e-12
2.85327e-13
9.23635e-15
3.0447e-16
1.04233e-17
3.35941e-19
0.0622215
0.120842
0.159153
0.106747
0.0367496
0.0183555
0.0108996
0.00209431
0.000253241
3.11e-05
3.05632e-06
2.11414e-07
1.04097e-08
4.02674e-10
1.2873e-11
3.84709e-13
1.16796e-14
3.9337e-16
1.3975e-17
4.5429e-19
0.0598462
0.113013
0.154212
0.144739
0.0629058
0.0289598
0.0166351
0.00322248
0.000403199
4.63194e-05
4.3558e-06
2.95381e-07
1.42918e-08
5.36696e-10
1.65796e-11
4.79733e-13
1.48134e-14
5.0845e-16
1.92219e-17
6.81841e-19
0.0564061
0.105447
0.146404
0.162548
0.0849839
0.0383513
0.0227928
0.00440038
0.000588723
6.87971e-05
5.74828e-06
3.74138e-07
1.74808e-08
6.31073e-10
1.89425e-11
5.4726e-13
1.81663e-14
7.1495e-16
3.40781e-17
1.54253e-18
0.0519024
0.0978447
0.138175
0.162944
0.120528
0.0608305
0.0302329
0.00508931
0.00071566
9.14734e-05
6.9952e-06
4.29232e-07
1.89719e-08
6.59451e-10
1.99141e-11
6.22193e-13
2.37435e-14
1.48011e-15
1.07428e-16
6.46749e-18
0.0482416
0.0924014
0.131473
0.16116
0.153027
0.0956618
0.0329563
0.00496195
0.000745855
0.000104342
8.01185e-06
4.44562e-07
1.89714e-08
6.60938e-10
2.14405e-11
8.27848e-13
4.85017e-14
5.4989e-15
5.31833e-16
3.83964e-17
0.0466746
0.0912359
0.127872
0.156951
0.168793
0.110181
0.0301226
0.00425094
0.000714714
0.000107156
8.05725e-06
4.36204e-07
1.86376e-08
6.82236e-10
2.65652e-11
1.58896e-12
1.65516e-13
2.31879e-14
3.19499e-15
2.42185e-16
0.0466945
0.0918709
0.127584
0.155344
0.170883
0.110106
0.0241617
0.00336239
0.000657323
0.000102951
7.56268e-06
4.2002e-07
1.91028e-08
8.42128e-10
5.06016e-11
5.30042e-12
8.0547e-13
1.34553e-13
1.73299e-14
1.60529e-15
0.0477574
0.093187
0.128646
0.155778
0.171557
0.106499
0.0177081
0.00263305
0.000604261
9.28614e-05
6.89905e-06
4.22765e-07
2.36881e-08
1.63877e-09
1.66241e-10
2.40922e-11
4.21945e-12
7.63039e-13
1.04969e-13
9.63619e-15
0.054645
0.0945389
0.129963
0.156924
0.171728
0.0998644
0.0129352
0.00214443
0.000554181
7.93655e-05
6.66049e-06
4.87095e-07
4.45866e-08
5.34474e-09
7.66895e-10
1.24084e-10
2.23533e-11
4.15994e-12
6.23468e-13
5.8927e-14
0.0679974
0.0975776
0.131773
0.158323
0.17024
0.0896041
0.00923018
0.00183212
0.000503978
6.82319e-05
6.84005e-06
7.61224e-07
1.25674e-07
2.25758e-08
3.98446e-09
6.77412e-10
1.20184e-10
2.21994e-11
3.64629e-12
3.51153e-13
0.0793424
0.101364
0.135043
0.159376
0.158662
0.0718027
0.0064261
0.00160924
0.000440105
6.3795e-05
8.15846e-06
1.63375e-06
4.22779e-07
9.94307e-08
2.04395e-08
3.63377e-09
6.28767e-10
1.09768e-10
1.84464e-11
1.87714e-12
0.089264
0.104798
0.139121
0.160802
0.140794
0.0500965
0.00450434
0.00144451
0.000382023
6.40193e-05
1.24679e-05
4.12119e-06
1.43626e-06
4.13603e-07
9.66042e-08
1.81386e-08
3.11058e-09
5.06686e-10
8.3082e-11
9.37847e-12
0.0983563
0.108421
0.142814
0.16241
0.120941
0.0314138
0.00334974
0.00128713
0.000345778
7.01171e-05
2.33296e-05
1.07694e-05
4.60378e-06
1.5616e-06
4.08172e-07
8.26919e-08
1.4637e-08
2.34332e-09
3.82192e-10
4.31959e-11
0.107091
0.114853
0.149012
0.165584
0.0979556
0.0189064
0.00282611
0.00114819
0.000335883
9.30781e-05
4.83461e-05
2.76629e-05
1.37155e-05
5.35983e-06
1.58603e-06
3.57773e-07
6.65115e-08
1.03688e-08
1.50493e-09
1.76284e-10
0.114758
0.123465
0.154849
0.166146
0.0765455
0.0117525
0.00255496
0.00106079
0.000350341
0.000152022
0.000103982
6.8436e-05
3.81114e-05
1.68578e-05
5.63668e-06
1.38984e-06
2.72648e-07
4.19917e-08
5.77681e-09
5.876e-10
0.120945
0.129315
0.156397
0.155937
0.0571017
0.00790365
0.0023762
0.00104682
0.000423959
0.000279788
0.000223168
0.000160563
9.80377e-05
4.79329e-05
1.78227e-05
4.75232e-06
9.72892e-07
1.52406e-07
2.0915e-08
2.15358e-09
0.126408
0.134782
0.157787
0.130111
0.0415485
0.00593439
0.00231926
0.00110748
0.000635667
0.000552432
0.000477095
0.000356265
0.000232929
0.0001235
5.01625e-05
1.44429e-05
2.9679e-06
5.03178e-07
6.96315e-08
7.26253e-09
0.131464
0.139874
0.159204
0.109913
0.0302355
0.00497353
0.00235711
0.00134503
0.00108829
0.00105082
0.000948578
0.000759306
0.000529006
0.000298332
0.000129175
3.89714e-05
8.04771e-06
1.51016e-06
2.09691e-07
2.22501e-08
0.135872
0.144376
0.160292
0.092235
0.0220022
0.00466845
0.00258963
0.00199123
0.00196518
0.00198208
0.00184874
0.00150943
0.00107659
0.000637144
0.000292583
8.70629e-05
1.93724e-05
4.01425e-06
5.89434e-07
6.30221e-08
0.140144
0.149235
0.163143
0.075305
0.0163716
0.00469834
0.00319438
0.00294916
0.00311079
0.00331063
0.00326542
0.00274522
0.00202745
0.00124454
0.000589581
0.000158356
4.17733e-05
9.95258e-06
1.55387e-06
1.73545e-07
0.144403
0.15397
0.162559
0.062913
0.0131496
0.00495238
0.00442605
0.00456356
0.00489875
0.00531261
0.00528166
0.00446797
0.0032767
0.00210626
0.00108088
0.000281486
8.27835e-05
2.27386e-05
3.7496e-06
4.4407e-07
0.147945
0.15689
0.155448
0.054347
0.0119505
0.00572363
0.0059865
0.00641152
0.00756846
0.0083372
0.00781505
0.00672092
0.00537067
0.00367554
0.00199696
0.0004836
0.000163474
4.79259e-05
8.30882e-06
1.0483e-06
0.150733
0.158752
0.140188
0.0471222
0.0118418
0.00739042
0.00794129
0.00895287
0.0105945
0.011234
0.0113441
0.0108161
0.00883976
0.00612951
0.00349818
0.000863243
0.000315049
9.51781e-05
1.72158e-05
2.32039e-06
0.153372
0.159765
0.128588
0.0415584
0.012029
0.00912783
0.00990044
0.0116545
0.0129663
0.0152748
0.0175129
0.0168545
0.0139072
0.0097943
0.00585463
0.00160138
0.000592831
0.000178189
3.35257e-05
4.83354e-06
0.155433
0.161617
0.118813
0.0386506
0.0127938
0.0110612
0.0123013
0.0135693
0.0168385
0.0215932
0.0249243
0.0247127
0.0208685
0.0151432
0.00945017
0.00289339
0.00104382
0.000315256
6.18719e-05
9.59261e-06
0.157063
0.163548
0.112947
0.0381444
0.0146292
0.0127005
0.0138449
0.0165813
0.0217898
0.0281975
0.033298
0.0338972
0.0301832
0.0226676
0.0144273
0.00522814
0.00174634
0.000530589
0.00010871
1.81876e-05
0.159962
0.164397
0.112892
0.0390963
0.0158492
0.0141029
0.0164118
0.0198665
0.0252483
0.0327582
0.0399835
0.0438285
0.0418624
0.0329477
0.0208733
0.00898699
0.00284526
0.000856644
0.000183253
3.33542e-05
0.160633
0.165491
0.11593
0.0412321
0.0176522
0.0169186
0.0195388
0.0223327
0.026991
0.035148
0.0451557
0.0531985
0.0545816
0.0460259
0.0302013
0.0139846
0.00447235
0.00132664
0.000294655
5.86568e-05
0.162047
0.166129
0.11985
0.0462794
0.0215451
0.020236
0.0223134
0.0243809
0.0280574
0.036072
0.0477053
0.0595969
0.0661358
0.0607086
0.0425569
0.0208399
0.0068014
0.00198619
0.000453618
9.83677e-05
0.162994
0.166457
0.127936
0.0557071
0.0266751
0.0237576
0.0253921
0.0270531
0.0291134
0.0353963
0.046858
0.0613369
0.074442
0.0750558
0.0573525
0.0299938
0.00995336
0.00285953
0.000668176
0.000158161
0.163491
0.166788
0.153222
0.0760493
0.0356874
0.0291188
0.0297792
0.0311989
0.0311315
0.0340868
0.0434243
0.0584731
0.0779921
0.0872305
0.0733966
0.041649
0.0140413
0.00394776
0.000934221
0.000241846
0.163867
0.166834
0.166018
0.0976372
0.0530319
0.0392042
0.0365002
0.0375807
0.0356041
0.0339199
0.0395464
0.0526878
0.0768475
0.0960068
0.0889052
0.0554898
0.0191847
0.00528518
0.00125511
0.000350567
0.165296
0.166742
0.169119
0.143506
0.0882396
0.0580458
0.0478068
0.0468997
0.0438408
0.036521
0.0370674
0.0465981
0.0721496
0.101135
0.1024
0.0708018
0.0252589
0.00684964
0.00163359
0.000490831
0.16598
0.166404
0.169033
0.165098
0.127368
0.0880057
0.0665476
0.060479
0.0561236
0.0431366
0.0369917
0.0424513
0.0657369
0.102793
0.113016
0.0866117
0.0319442
0.00850108
0.00202876
0.000657679
0.166476
0.166057
0.16811
0.169253
0.162331
0.126555
0.0938093
0.0796478
0.0726321
0.0542583
0.0400239
0.041495
0.060038
0.101676
0.120254
0.100519
0.0389824
0.0102163
0.0024361
0.000838849
0.166499
0.165184
0.166038
0.168619
0.169261
0.159236
0.127796
0.104164
0.0933262
0.0693426
0.0456397
0.0427607
0.056954
0.0990325
0.124587
0.11108
0.0450473
0.0116755
0.00280225
0.00102651
0.166582
0.163144
0.163062
0.166018
0.169098
0.169376
0.158095
0.132495
0.116957
0.0864353
0.053122
0.0462441
0.0568997
0.0970697
0.127442
0.117652
0.0493459
0.0126626
0.00303494
0.00117184
0.167579
0.162506
0.159575
0.162402
0.166707
0.169735
0.1698
0.158718
0.140682
0.106033
0.0644437
0.0530565
0.060897
0.0975334
0.130646
0.121594
0.0513087
0.0130259
0.00310707
0.00125721
0.169537
0.162866
0.15617
0.158046
0.162018
0.167653
0.170591
0.170678
0.160052
0.130284
0.079294
0.0631356
0.0690231
0.10225
0.134997
0.124083
0.0498225
0.0125085
0.00297928
0.00127245
0.171324
0.163565
0.155235
0.153652
0.157655
0.163166
0.168989
0.171785
0.171679
0.147448
0.0940748
0.0757061
0.0810553
0.111664
0.140428
0.124615
0.0448359
0.011129
0.00265449
0.0012095
0.159419
0.164512
0.155469
0.152238
0.154273
0.158858
0.165006
0.170666
0.17295
0.165618
0.12359
0.0964659
0.0994104
0.125298
0.14634
0.121025
0.0371247
0.00920168
0.00221814
0.0011022
0.147107
0.167042
0.157645
0.151289
0.151284
0.155122
0.160952
0.167488
0.17221
0.172539
0.142448
0.117186
0.119809
0.141409
0.151809
0.108858
0.0285247
0.00711237
0.00175541
0.000977538
0.145297
0.16826
0.159798
0.151265
0.149366
0.152174
0.157205
0.163817
0.169965
0.172834
0.166295
0.143222
0.142895
0.1569
0.156251
0.086576
0.0206284
0.00523646
0.00135881
0.000863782
0.148098
0.168905
0.161749
0.152345
0.148791
0.14985
0.153895
0.160149
0.16648
0.171778
0.172605
0.164725
0.163914
0.169541
0.15504
0.0592935
0.0137607
0.00373743
0.00105445
0.000767935
0.154886
0.168779
0.162591
0.153926
0.148869
0.148353
0.151253
0.156703
0.162924
0.168933
0.17232
0.172905
0.17337
0.174864
0.136679
0.036671
0.00898741
0.00269759
0.00084414
0.000685024
0.165321
0.167675
0.162083
0.155188
0.14912
0.14759
0.149353
0.153721
0.159567
0.165586
0.170376
0.172627
0.172978
0.173303
0.098637
0.0221509
0.00586662
0.00202494
0.000706245
0.000606354
0.171012
0.165361
0.159571
0.154687
0.149051
0.146879
0.14769
0.150945
0.155967
0.161352
0.165452
0.168919
0.171518
0.159385
0.0541342
0.0124533
0.00400094
0.00162758
0.000611906
0.000525658
0.169845
0.162911
0.156165
0.152388
0.148507
0.146395
0.146544
0.148874
0.152873
0.1574
0.161338
0.166097
0.171714
0.117533
0.026442
0.00793171
0.00312229
0.00139323
0.000538616
0.000451594
0.168632
0.160978
0.153767
0.150052
0.14771
0.146185
0.146332
0.148344
0.151817
0.156041
0.160717
0.166529
0.168769
0.0574898
0.015846
0.00618175
0.00270929
0.00123016
0.000476343
0.000388806
0.168032
0.159909
0.152539
0.148948
0.147212
0.146311
0.146583
0.148658
0.152072
0.156422
0.16185
0.169284
0.113431
0.0316095
0.0123965
0.00549265
0.00242662
0.00108419
0.000417912
0.00033059
0.168126
0.159775
0.152289
0.148749
0.147252
0.146613
0.147153
0.149351
0.152829
0.157701
0.164289
0.172045
0.0647712
0.0257657
0.0117419
0.00514597
0.00219706
0.0009569
0.000365847
0.000279645
0.168835
0.16033
0.152642
0.149045
0.147621
0.147205
0.148202
0.150755
0.154663
0.160623
0.16742
0.144198
0.0543645
0.0259969
0.011503
0.00472165
0.0019346
0.000827906