/*--------------------------------*- C++ -*----------------------------------*\
| =========                 |                                                 |
| \\      /  F ield         | OpenFOAM: The Open Source CFD Toolbox           |
|  \\    /   O peration     | Version:  dev                                   |
|   \\  /    A nd           | Web:      www.OpenFOAM.org                      |
|    \\/     M anipulation  |                                                 |
\*---------------------------------------------------------------------------*/
FoamFile
{
    version     2.0;
    format      ascii;
    class       surfaceScalarField;
    location    "100";
    object      heatFlux;
}
// * * * * * * * * * * * * * * * * * * * * * * * * * * * * * * * * * * * * * //

dimensions      [1 0 -3 0 0 0 0];

internalField   nonuniform List<scalar> 
7780
(
-0.00600713
-0.00739254
-0.00341491
-0.0170201
-0.00256984
-0.0244673
-0.00187277
-0.0308336
-0.00140286
-0.0358139
-0.00107717
-0.0398014
-0.000866818
-0.0430235
-0.000745112
-0.0457057
-0.000675337
-0.0480851
-0.000659229
-0.050327
-0.000647143
-0.0524866
-0.000648374
-0.0547029
-0.000656254
-0.0570138
-0.000644627
-0.0594181
-0.000609391
-0.0618535
-0.000505921
-0.0641567
-0.000258639
-0.0661087
0.00045653
-0.0663887
0.00310917
-0.0625448
-0.0434488
-0.0154263
-0.00556444
-0.0102916
-0.0151537
-0.00811813
-0.0235758
-0.00596939
-0.0304334
-0.00449847
-0.0359382
-0.00343807
-0.0404294
-0.00272175
-0.0441214
-0.00229816
-0.0471938
-0.00205642
-0.0498245
-0.00191484
-0.0521876
-0.00186341
-0.0544547
-0.00184523
-0.056627
-0.00183156
-0.0587939
-0.00176825
-0.0608957
-0.00161229
-0.0629303
-0.00130817
-0.0645676
-0.000367253
-0.0655097
0.0018638
-0.0644204
0.00970744
-0.0585659
-0.0368235
-0.0248601
-0.00530419
-0.0181116
-0.0153107
-0.0141277
-0.0238868
-0.0105225
-0.030913
-0.00800446
-0.0366147
-0.00615827
-0.0412535
-0.00485824
-0.0451672
-0.00402474
-0.0484825
-0.00352024
-0.0513086
-0.00324025
-0.053828
-0.00306212
-0.056106
-0.0029737
-0.0582076
-0.00286469
-0.0602109
-0.00271213
-0.0619739
-0.00232922
-0.0634961
-0.0016975
-0.064408
5.7613e-05
-0.0643466
0.00401901
-0.0616889
0.0172617
-0.0537659
-0.0304685
-0.0347587
-0.00511709
-0.0261186
-0.0151347
-0.020319
-0.0237367
-0.0152645
-0.0306376
-0.0116457
-0.0362339
-0.00905775
-0.0408817
-0.00717642
-0.0448203
-0.00588988
-0.0482034
-0.00508949
-0.0511556
-0.00457945
-0.0537484
-0.0042282
-0.0560954
-0.00402274
-0.0581989
-0.0037361
-0.0600505
-0.0034222
-0.0615287
-0.00273071
-0.0626175
-0.00167199
-0.0627568
0.00109997
-0.0615873
0.00695182
-0.0573545
0.0254011
-0.0474981
-0.0238725
-0.0447233
-0.00474884
-0.0341943
-0.0142265
-0.0264338
-0.0227117
-0.0199446
-0.0295042
-0.0153143
-0.0349739
-0.0119918
-0.0395205
-0.0095551
-0.0433089
-0.00784895
-0.0466389
-0.00671346
-0.0496051
-0.0059668
-0.0522682
-0.00540181
-0.0546599
-0.00499773
-0.0567219
-0.00447077
-0.0584505
-0.00393292
-0.0596507
-0.00279241
-0.0601892
-0.00118332
-0.0595677
0.00276927
-0.0572224
0.0106205
-0.0513386
0.0337009
-0.0396908
-0.0169478
-0.0542028
-0.00434046
-0.0422044
-0.0131581
-0.0324858
-0.0210675
-0.0245441
-0.0277682
-0.0189228
-0.0332093
-0.0148297
-0.0374968
-0.0119094
-0.041157
-0.00982824
-0.0443853
-0.0083907
-0.0473463
-0.00738841
-0.0500143
-0.00655861
-0.0523659
-0.00591302
-0.0543493
-0.00507059
-0.0558768
-0.0041869
-0.0567025
-0.00251575
-0.0566334
-0.000197909
-0.0550533
0.00510254
-0.0513369
0.01498
-0.0437612
0.0417348
-0.0305823
-0.0100729
-0.0630711
-0.00391966
-0.0497123
-0.0118371
-0.0384889
-0.0194238
-0.029145
-0.0259603
-0.0223446
-0.0311836
-0.0175866
-0.0353807
-0.0142044
-0.0388637
-0.011815
-0.0419694
-0.0100803
-0.0447996
-0.00879395
-0.0473971
-0.00767748
-0.0496412
-0.00672633
-0.0514586
-0.00548548
-0.0526297
-0.00415413
-0.0529646
-0.00180847
-0.0521159
0.00137223
-0.0494714
0.00812334
-0.0441836
0.0199398
-0.0349843
0.0490198
-0.0206266
-0.00381297
-0.0710781
-0.00356978
-0.0569538
-0.010828
-0.0443775
-0.0178571
-0.0335861
-0.0240462
-0.0257127
-0.0291985
-0.0202246
-0.0332773
-0.0164245
-0.0366436
-0.0137245
-0.0395989
-0.0117343
-0.0423006
-0.0101426
-0.0447222
-0.00870841
-0.0467399
-0.0073533
-0.048246
-0.00565468
-0.0489592
-0.00374941
-0.0486178
-0.000618145
-0.0467851
0.00361864
-0.0428746
0.0118119
-0.035996
0.0253732
-0.0253825
0.0550251
-0.0105837
0.00171347
-0.078459
-0.00326612
-0.0637002
-0.00992488
-0.0499839
-0.0164472
-0.0379911
-0.0223263
-0.029004
-0.0272688
-0.0227883
-0.0312405
-0.0185489
-0.034492
-0.0155574
-0.0373177
-0.0132849
-0.039836
-0.011362
-0.0420091
-0.00956743
-0.0437331
-0.00773727
-0.0447477
-0.00548121
-0.044847
-0.00287056
-0.0436715
0.00115178
-0.0406953
0.00655704
-0.0354259
0.016091
-0.0270412
0.0310045
-0.0154038
0.0594416
-0.00112173
0.0062726
-0.0852678
-0.00300289
-0.0699948
-0.00912443
-0.055339
-0.0151851
-0.0422401
-0.0207562
-0.0322266
-0.0254969
-0.0252783
-0.0293551
-0.0205913
-0.0325044
-0.0172753
-0.0351667
-0.0146841
-0.0374424
-0.0124096
-0.0392943
-0.0101493
-0.0405651
-0.00779105
-0.041026
-0.00488066
-0.0403093
-0.0014354
-0.0381301
0.00354992
-0.0339157
0.0101586
-0.027306
0.0208089
-0.0176761
0.0364693
-0.00565423
0.0621119
0.00701591
0.00970425
-0.091562
-0.00276473
-0.0758763
-0.00841807
-0.0604417
-0.0140731
-0.0463382
-0.019328
-0.0353745
-0.023884
-0.0277035
-0.02761
-0.0225261
-0.0306312
-0.0188364
-0.0330878
-0.015883
-0.0350768
-0.0131862
-0.0365163
-0.0104151
-0.0372343
-0.00740097
-0.0369647
-0.00376113
-0.0353532
0.000608031
-0.0320483
0.00657473
-0.0265947
0.0143179
-0.0187817
0.0257096
-0.00836438
0.0413441
0.00326878
0.0630882
0.0133675
0.0117559
-0.0974069
-0.00257132
-0.0813945
-0.0077987
-0.0652814
-0.0130876
-0.0502984
-0.0180572
-0.0384313
-0.0223958
-0.0300428
-0.0259606
-0.0243215
-0.028816
-0.0202083
-0.0310405
-0.0168201
-0.0326709
-0.0136273
-0.0336357
-0.0102588
-0.0336992
-0.00651898
-0.0325899
-0.00205388
-0.0299775
0.00326697
-0.0255275
0.01017
-0.0189264
0.0188423
-0.0101982
0.0304782
0.000396957
0.0452511
0.0108573
0.0624997
0.0177477
0.0124735
-0.102841
-0.00239381
-0.086584
-0.00728358
-0.0698837
-0.0122377
-0.0540905
-0.0169339
-0.0413721
-0.0210274
-0.032266
-0.0244106
-0.0259562
-0.0270609
-0.021339
-0.0289977
-0.0174517
-0.0302316
-0.0136666
-0.0306182
-0.0096119
-0.0299268
-0.00508122
-0.0279114
0.000257615
-0.0242312
0.00650315
-0.0186979
0.0142086
-0.0111579
0.0234693
-0.00195649
0.0347897
0.00814875
0.0479316
0.0167199
0.0605632
0.0201569
0.0122137
-0.107953
-0.00223679
-0.0914719
-0.00684075
-0.0742569
-0.0114907
-0.0576883
-0.0159023
-0.0441784
-0.0197855
-0.034341
-0.022937
-0.0273873
-0.0253155
-0.0221996
-0.0269348
-0.0177061
-0.0276801
-0.013237
-0.0274067
-0.0084302
-0.0259132
-0.00304459
-0.022918
0.00314771
-0.0182113
0.0102202
-0.0117428
0.0184897
-0.00359199
0.0279069
0.00555647
0.0383421
0.0145426
0.0492761
0.0207644
0.0576306
0.020927
0.011358
-0.112792
-0.00212441
-0.0960851
-0.0064596
-0.0783878
-0.0108526
-0.0611201
-0.0150111
-0.0468071
-0.0186394
-0.0362134
-0.021534
-0.0285905
-0.0236223
-0.0227223
-0.0248221
-0.0175252
-0.0249989
-0.012304
-0.0240104
-0.0066643
-0.0216402
-0.000425431
-0.0176877
0.00654495
-0.0120649
0.0142605
-0.00489393
0.0227698
0.00346163
0.0318748
0.012043
0.0409351
0.019397
0.04934
0.0230645
0.0540782
0.0204757
0.0102406
-0.117375
-0.0020377
-0.100468
-0.00614484
-0.0823032
-0.010315
-0.0643443
-0.0142256
-0.0492349
-0.0175723
-0.0378666
-0.0201701
-0.029487
-0.0219193
-0.0228469
-0.0226367
-0.0168673
-0.0221864
-0.0108152
-0.0204198
-0.00432105
-0.0171592
0.00272083
-0.0123128
0.010332
-0.00594986
0.0184253
0.00161642
0.0268068
0.00974657
0.0351401
0.0172865
0.0424719
0.0226752
0.0483161
0.0239411
0.0502575
0.0193133
0.00901086
-0.12174
-0.00193957
-0.104651
-0.00591482
-0.0860057
-0.00987674
-0.0673348
-0.0135321
-0.0514258
-0.0165887
-0.0392589
-0.0188726
-0.0300259
-0.0201724
-0.0225276
-0.0203457
-0.015685
-0.019227
-0.00875576
-0.0166484
-0.00143192
-0.0125197
0.0063009
-0.00690643
0.01435
-3.58126e-05
0.0225001
0.00757277
0.0303735
0.0150612
0.0375459
0.0211932
0.0430054
0.0245221
0.0464756
0.0236769
0.0463903
0.0177108
0.00786617
-0.125988
-0.00189396
-0.108647
-0.00571341
-0.0894856
-0.00948908
-0.0700812
-0.01293
-0.0533626
-0.015678
-0.0402993
-0.0175832
-0.0301568
-0.0183773
-0.02173
-0.01794
-0.0139498
-0.0160899
-0.00613351
-0.0127087
0.00193288
-0.00781238
0.010188
-0.00160459
0.0184127
0.00549274
0.0262741
0.0127859
0.0332902
0.0192872
0.0390404
0.0238414
0.0426472
0.025226
0.0440897
0.0226395
0.0426746
0.0159668
0.00680573
-0.130093
-0.00185418
-0.112476
-0.00556745
-0.0927794
-0.00920292
-0.072564
-0.012368
-0.0549873
-0.0148195
-0.0409384
-0.0162721
-0.0298246
-0.0165295
-0.0204036
-0.0154216
-0.011662
-0.0128189
-0.00300654
-0.00866087
0.00567465
-0.00312094
0.0142256
0.00346051
0.0223287
0.0104939
0.0295687
0.0171398
0.0354685
0.0224071
0.0396654
0.0253052
0.0415453
0.0250234
0.0414064
0.0211632
0.0391976
0.0142403
0.0058794
-0.134105
-0.00184941
-0.116184
-0.00542934
-0.095826
-0.00898834
-0.0747912
-0.0118768
-0.0562328
-0.0139697
-0.0411466
-0.0149245
-0.0289784
-0.0145946
-0.0185274
-0.0127915
-0.00883285
-0.0094243
0.000551041
-0.00458104
0.00966362
0.00145453
0.018249
0.00816726
0.0259169
0.0148379
0.0322527
0.0205628
0.0368623
0.0244847
0.0395376
0.025855
0.0398914
0.0241015
0.0386072
0.0194454
0.0360068
0.0126055
0.0051195
-0.137995
-0.00184177
-0.119834
-0.00542431
-0.0986218
-0.00875922
-0.0767031
-0.011483
-0.057056
-0.0131182
-0.0408782
-0.0135748
-0.0275935
-0.0125715
-0.0160866
-0.010026
-0.00551927
-0.00594486
0.00444836
-0.000521458
0.0137547
0.00581541
0.022086
0.0124167
0.0290249
0.0184516
0.0342622
0.0231307
0.037525
0.0256827
0.0387372
0.0256151
0.0378857
0.0227786
0.0358261
0.0176649
0.0331341
0.0111135
0.00446335
-0.141909
-0.00186694
-0.123273
-0.0054633
-0.101273
-0.00866296
-0.0782051
-0.0110241
-0.0574519
-0.0122991
-0.0400572
-0.0121396
-0.0256276
-0.0104574
-0.0131118
-0.00718486
-0.00178824
-0.00243215
0.00856289
0.00343553
0.0178001
0.00985843
0.0255765
0.0160924
0.0315792
0.0213174
0.035577
0.0248186
0.0374921
0.0260813
0.0374353
0.0248144
0.0356705
0.0212039
0.0331477
0.0159155
0.030568
0.00979466
0.00391479
-0.14586
-0.00190394
-0.126591
-0.00551639
-0.103583
-0.00857612
-0.0793829
-0.0106924
-0.0573128
-0.0114449
-0.0386732
-0.0106438
-0.0230862
-0.00823746
-0.00962838
-0.00425213
0.00227079
0.00106938
0.0127564
0.00722466
0.0216415
0.0135274
0.0286153
0.0191606
0.0335011
0.0234429
0.0362312
0.0257743
0.0368727
0.0258348
0.0357691
0.0236215
0.0333671
0.0195195
0.0306314
0.0142738
0.0282866
0.00865158
0.00345921
-0.149851
-0.0019671
-0.129781
-0.0055961
-0.105666
-0.00857839
-0.0800817
-0.0103608
-0.0566106
-0.0105417
-0.0366823
-0.00906063
-0.0199742
-0.00591377
-0.00570646
-0.00124783
0.00655233
0.00451723
0.0168942
0.0107615
0.025132
0.0167043
0.0311197
0.0216219
0.0347879
0.0248859
0.0362627
0.0260833
0.0357845
0.0251144
0.0338655
0.0221878
0.0310695
0.0178286
0.0283073
0.0127642
0.0262608
0.00765442
0.0030797
-0.153882
-0.0020607
-0.132907
-0.00576894
-0.10743
-0.00862687
-0.0802506
-0.00999236
-0.0553052
-0.00959658
-0.0340644
-0.0073924
-0.0163106
-0.00349141
-0.00143413
0.00178263
0.0109198
0.00784728
0.0208173
0.0140029
0.028196
0.0194484
0.0330391
0.0235138
0.0354524
0.0257126
0.0357552
0.0258698
0.0343375
0.0240456
0.0318314
0.0206384
0.0288391
0.0161968
0.0261833
0.0114067
0.0244661
0.0068152
0.00276368
-0.158024
-0.00219302
-0.13592
-0.00602403
-0.108788
-0.00871045
-0.079879
-0.00963442
-0.0533515
-0.00857842
-0.0308011
-0.00559429
-0.0121466
-0.00096803
0.0030851
0.00480666
0.0152491
0.0110284
0.024432
0.0168803
0.030743
0.0216758
0.0343392
0.0248105
0.0355401
0.0260009
0.0347944
0.0252352
0.0326436
0.022759
0.0297474
0.0190468
0.0267179
0.0146623
0.0242642
0.0102068
0.0228678
0.00610318
0.00248069
-0.162327
-0.00236574
-0.138768
-0.00634867
-0.109713
-0.00884423
-0.0788818
-0.00925007
-0.050692
-0.00745183
-0.0269096
-0.00366828
-0.00756202
0.00163573
0.00774708
0.00778482
0.0193876
0.0139572
0.0276329
0.019381
0.0327177
0.0233966
0.035047
0.0255934
0.0351104
0.025832
0.0334828
0.0242915
0.0307879
0.0213452
0.0276788
0.0174876
0.0247338
0.013257
0.0225395
0.0091529
0.0214309
0.00547852
0.0022482
-0.166825
-0.00258917
-0.141428
-0.00675765
-0.110121
-0.00902136
-0.0771743
-0.00882313
-0.0473013
-0.00620916
-0.0224234
-0.00161349
-0.0026532
0.0043142
0.0123976
0.0106797
0.0232446
0.0166565
0.030328
0.0215045
0.0341094
0.0246572
0.0351896
0.0258962
0.0342412
0.0253079
0.0319137
0.0231536
0.0288489
0.0198767
0.0256717
0.0159865
0.0228962
0.0119895
0.0209867
0.00825203
0.0201424
0.00492558
0.00206147
-0.171559
-0.00287822
-0.143854
-0.00726632
-0.109921
-0.00923685
-0.0746786
-0.00832996
-0.04316
-0.00482323
-0.0173819
0.000593822
0.00245655
0.00702051
0.0169257
0.0134803
0.0267112
0.0190906
0.0324557
0.023199
0.0348986
0.0254463
0.034836
0.0258234
0.0330188
0.0244989
0.0301589
0.0218724
0.0268826
0.0183992
0.0237649
0.0145797
0.0212134
0.0108245
0.0195731
0.00744809
0.0189937
0.00447476
0.00188283
-0.17657
-0.00325244
-0.145978
-0.00789258
-0.108998
-0.00948198
-0.071312
-0.00773947
-0.0382515
-0.00326496
-0.0118857
0.00294557
0.00767061
0.00975424
0.0211998
0.0161201
0.0296652
0.0212167
0.0339807
0.0244949
0.0351401
0.0258604
0.0340353
0.025421
0.0315202
0.0234888
0.0282886
0.0205138
0.0249414
0.0169584
0.0219636
0.0132805
0.0196848
0.00980905
0.0183026
0.00674738
0.0179484
0.00408973
0.00173258
-0.181898
-0.00372468
-0.147701
-0.00866004
-0.107216
-0.00974365
-0.0669924
-0.00701554
-0.0325929
-0.0015098
-0.00603062
0.00545281
0.0128374
0.0124881
0.025104
0.0185736
0.0320353
0.0230006
0.0349125
0.0254139
0.0348571
0.0259112
0.0328608
0.0247394
0.0298135
0.0223235
0.0263634
0.0191079
0.0230618
0.015569
0.0202892
0.0120868
0.018291
0.00891518
0.0171607
0.00612759
0.0169925
0.00371607
0.00160777
-0.187596
-0.00423075
-0.148881
-0.00958706
-0.10441
-0.00994665
-0.0616479
-0.00607756
-0.0262139
0.000507616
5.28148e-05
0.008095
0.0178039
0.0151944
0.0285139
0.0208151
0.0337898
0.0244412
0.0352537
0.0259782
0.0340983
0.0256357
0.0313841
0.0238474
0.0279585
0.021057
0.0244366
0.0177211
0.0212724
0.0142757
0.0187509
0.0110163
0.0170149
0.00810738
0.0161188
0.00558587
0.0161328
0.0034096
0.00148461
-0.193815
-0.00475022
-0.149275
-0.0102536
-0.100408
-0.00993145
-0.0552202
-0.00482998
-0.019224
0.00282498
0.00622571
0.0108892
0.0224165
0.0178345
0.0313225
0.022808
0.0349133
0.0255351
0.0350175
0.0261975
0.0329338
0.0251016
0.0296691
0.0227893
0.0260234
0.0197263
0.0225503
0.0163776
0.0195882
0.013064
0.0173322
0.0100446
0.0158543
0.0073797
0.0151734
0.00509676
0.0153435
0.00312798
0.00137715
-0.200239
-0.00358688
-0.148921
-0.00918206
-0.0951034
-0.00880371
-0.0477069
-0.00288387
-0.0117537
0.00556535
0.012298
0.0138396
0.0265205
0.0203732
0.0334465
0.0245238
0.0354003
0.0263005
0.0342571
0.0260837
0.0314197
0.0243468
0.0277761
0.0216093
0.0240702
0.0183912
0.0207261
0.0150755
0.0180194
0.0119544
0.0160254
0.00915267
0.0147976
0.00674457
0.0143133
0.00466711
0.0146216
0.00289288
0.00127338
-0.206807
0.00883943
-0.148501
0.00128836
-0.0889132
-0.00349062
-0.0393681
0.000766579
-0.00404647
0.00903502
0.018042
0.0169836
0.0299644
0.0227755
0.0348379
0.0259327
0.03524
0.0267165
0.0330455
0.0256656
0.0296172
0.0233837
0.0257764
0.0203481
0.0221255
0.0170572
0.0189983
0.0138413
0.0165556
0.0109048
0.0148379
0.00833939
0.0138308
0.00616421
0.013534
0.00428762
0.0139502
0.00267348
0.00117976
-0.21572
0.0989218
-0.153825
0.0684875
-0.0844369
0.0235362
-0.0311626
0.0111649
0.00339844
0.0143782
0.0231621
0.0205159
0.0325986
0.025029
0.0354551
0.0270115
0.0344589
0.0267921
0.0314448
0.0249956
0.0276074
0.0222394
0.02372
0.0190302
0.0202289
0.0157506
0.0173638
0.0126775
0.0152078
0.00995414
0.0137594
0.00762253
0.0129526
0.00563763
0.012821
0.0039417
0.0133275
0.00245551
0.00110923
-0.251843
0.758631
-0.204181
0.482519
-0.0975169
0.164042
-0.0279561
0.0516928
0.00917904
0.0268101
0.0271738
0.0253938
0.0342619
0.0272467
0.0352814
0.0277532
0.0331163
0.0265298
0.0295007
0.0240799
0.025471
0.0209696
0.0216593
0.0176631
0.0184065
0.014474
0.0158395
0.0116041
0.0139761
0.00908263
0.0127697
0.00697046
0.0121545
0.00516098
0.012161
0.00363008
0.0127632
0.00228026
0.00102301
-0.581376
6.21132
-0.562921
3.3637
-0.216959
0.992454
-0.0529236
0.25041
0.00783772
0.0713564
0.0288301
0.0359783
0.0346891
0.0300771
0.0343074
0.028233
0.0312752
0.0259451
0.0272947
0.0229427
0.0232576
0.0196036
0.0196444
0.0162916
0.0166951
0.0132457
0.0144204
0.0105605
0.0128541
0.00829212
0.0118625
0.00636446
0.0114301
0.00473673
0.0115581
0.00333558
0.0122333
0.00210275
0.000955875
-3.99881
59.3053
-3.24877
26.3502
-1.01022
6.37919
-0.233582
1.34078
-0.0258519
0.273286
0.0235262
0.07174
0.0331248
0.0361991
0.0324756
0.0287771
0.0290064
0.0250849
0.0249133
0.0216132
0.0210283
0.0181597
0.0177093
0.0149319
0.0150851
0.012065
0.0131367
0.0096089
0.0118245
0.00756185
0.011042
0.00582299
0.0107634
0.00435115
0.0110045
0.00307701
0.0117472
0.0019445
0.000897191
-43.7751
698.641
-25.9972
256.216
-6.42638
47.4137
-1.31661
7.868
-0.218842
1.25718
-0.00859397
0.213628
0.0267941
0.0554054
0.0295032
0.0304699
0.0263685
0.0240547
0.0224367
0.0201077
0.0188435
0.0166472
0.0158778
0.0135835
0.0136042
0.0109463
0.0119718
0.00873518
0.0108906
0.00686742
0.0102959
0.00531469
0.0101539
0.00399255
0.0104931
0.00283668
0.0113008
0.00180214
0.00083422
-582.38
8466.55
-265.405
2631.01
-49.1814
361.35
-8.06102
45.2969
-1.22363
5.70749
-0.152379
0.728191
0.00540692
0.11285
0.02431
0.03556
0.0233529
0.0229558
0.0199413
0.0183571
0.0167584
0.0149963
0.0141838
0.0121833
0.0122637
0.00981695
0.0109031
0.007838
0.010052
0.00622515
0.00962195
0.00485019
0.00959779
0.00366141
0.0100234
0.00260865
0.010886
0.00167193
0.000775418
-7941.6
19854.8
-2899.57
13868.7
-393.265
1800.37
-48.6828
178.681
-6.04466
18.7433
-0.714672
1.91464
-0.0612512
0.226259
0.0140502
0.0443845
0.0198199
0.0212363
0.0175044
0.0158914
0.0148333
0.0128625
0.0126554
0.0104843
0.0110573
0.00852804
0.00997507
0.00693819
0.00930534
0.00562677
0.00901266
0.00437025
0.00908852
0.00332185
0.00959572
0.00235218
0.0104997
0.00152144
0.000724932
-15394.1
-727.336
-16901
26205.3
-2172.13
3693.17
-213.827
317.545
-22.4302
31.8923
-2.26605
4.08521
-0.218977
0.533134
-0.00489653
0.08445
0.0156909
0.0261327
0.015296
0.0167206
0.0131967
0.0131222
0.0113848
0.0105889
0.0100827
0.00857962
0.00921634
0.00700376
0.00861921
0.00530371
0.00847234
0.00421204
0.00861685
0.00311846
0.00921433
0.00227615
0.0101546
0.00145676
0.0006816
17607.2
-1991.21
-42483
6151.76
-5844.33
3956.16
-510.624
383.022
-49.6602
42.2574
-5.54805
4.74613
-0.610241
0.594375
-0.0528935
0.0906483
0.00837966
0.0274947
0.0126578
0.0159323
0.0114438
0.0121283
0.0100726
0.00965172
0.00911136
0.0076013
0.00822732
0.00567541
0.0080198
0.00458614
0.00790561
0.00362998
0.00820486
0.00281641
0.00883607
0.00209099
0.00981684
0.00135418
0.000627828
27400.2
-1791.15
-45318.2
-693.321
-9679.64
5675.82
-866.465
669.283
-86.605
67.0893
-9.4055
7.7364
-1.05194
0.928483
-0.105159
0.121575
-0.000651612
0.0242332
0.00985344
0.0118401
0.00972059
0.00894002
0.00872605
0.00732904
0.00791768
0.00605152
0.00759012
0.0050427
0.00749188
0.00430305
0.00748166
0.00328083
0.00784808
0.00260152
0.00849405
0.00180401
0.00949861
0.00120658
0.000588239
28686.3
-1236.58
-38324.5
-818.218
-15051
5096.52
-1497.67
948.737
-145.403
101.133
-15.7661
11.8615
-1.7634
1.44828
-0.186164
0.183675
-0.0103854
0.0315251
0.00770365
0.012054
0.00859349
0.00825411
0.00788246
0.00654832
0.00728895
0.00546065
0.00715504
0.00468548
0.00692437
0.00373339
0.00712571
0.00291683
0.00745368
0.00222769
0.00821519
0.00173298
0.00922621
0.00113071
0.000551952
29163.9
-972.037
-31538.2
-944.272
-19564.5
4977.74
-2387.3
1095.86
-234.359
126.321
-25.5498
16.2398
-2.88461
2.16416
-0.313479
0.286721
-0.0257629
0.0434071
0.00487123
0.0129065
0.00739343
0.00808564
0.00716026
0.0064863
0.00680316
0.00541905
0.0065919
0.00457807
0.00646853
0.00382172
0.00676261
0.00326667
0.00720767
0.00245346
0.00793252
0.00176907
0.00896983
0.00113257
0.00052379
29161.6
-802.353
-24588
-765.222
-23840.9
4937.52
-3404.89
1331.51
-344.685
165.106
-38.8491
20.7348
-4.5584
2.74703
-0.518206
0.369479
-0.0499846
0.0550601
0.00125787
0.0137586
0.00626204
0.00764783
0.00644769
0.00603037
0.00627321
0.00506468
0.00614206
0.00423892
0.00615696
0.00346357
0.00633178
0.00293856
0.00686545
0.00224829
0.00763213
0.00148091
0.00869866
0.000973541
0.000485477
29177.8
-629.427
-17819.6
-569.291
-27869.7
4691
-4628.87
1397.81
-490.183
170.125
-55.9409
22.5099
-6.68983
3.17505
-0.784227
0.437897
-0.0829652
0.0637101
-0.00334759
0.0141385
0.0051115
0.00716977
0.00579937
0.00553587
0.00574997
0.0045743
0.00567837
0.00372557
0.00586061
0.00296976
0.00596404
0.00218175
0.00647961
0.00170896
0.00739136
0.00133531
0.00848006
0.000940482
0.000467082
29227.1
-553.442
-11532
-546.595
-31584.7
4602.38
-5917.34
1695.8
-639.737
239.892
-74.4168
30.4628
-9.15727
4.04205
-1.10257
0.541355
-0.122769
0.0756155
-0.00862879
0.0146291
0.00394283
0.00642158
0.00515023
0.00477331
0.0052092
0.00396116
0.00522386
0.00332368
0.00541336
0.00286608
0.00571078
0.00217118
0.00629069
0.00175431
0.00720295
0.00137097
0.00826685
0.000864772
0.000429745
29213
-447.532
-5343.01
-406.541
-34911.6
4347.96
-7447.83
1605.21
-852.974
218.78
-99.8074
29.3
-12.3306
4.31659
-1.501
0.616316
-0.172009
0.0864596
-0.0148832
0.0152793
0.00275736
0.00583753
0.00459892
0.00416072
0.00480078
0.00345719
0.00494716
0.00288034
0.00501677
0.00226512
0.00548623
0.00182397
0.00609581
0.00148003
0.00696006
0.00117627
0.00806985
0.000813682
0.000409723
29244.9
-407.727
393.749
-389.088
-38059.5
4074.33
-8908.54
1916.56
-1046.8
332.479
-123.953
43.7066
-15.7035
5.83517
-1.95678
0.777021
-0.229798
0.104087
-0.022118
0.0167178
0.00154468
0.00549657
0.00411871
0.00374246
0.00442916
0.00314496
0.00457309
0.00270275
0.00476361
0.00230943
0.00529994
0.00221037
0.00594053
0.00167536
0.00678512
0.00113249
0.00788589
0.000757554
0.000388028
29250.4
-364.451
5799.22
-281.681
-40584.4
4304.73
-10588.3
1886.38
-1343.46
283.164
-160.763
36.7173
-20.3398
5.521
-2.53886
0.823285
-0.301124
0.116233
-0.0307639
0.0181268
0.000269077
0.00529599
0.00370861
0.00343582
0.0041427
0.00288508
0.00433261
0.00248219
0.00470645
0.00207003
0.00500856
0.00164784
0.00566148
0.00137922
0.00660322
0.00105394
0.00771669
0.000770679
0.000383717
29339.3
-344.555
11368.8
-371.771
-43404.4
2912.82
-12294.3
1989.3
-1597.65
421.191
-191.257
57.9107
-24.6698
8.07206
-3.15383
1.09847
-0.381658
0.144868
-0.0407048
0.0208101
-0.00109115
0.00528146
0.00332852
0.00319314
0.00388026
0.00267432
0.00407923
0.00233985
0.00446147
0.00205714
0.00486145
0.00163534
0.00549335
0.00122881
0.00646504
0.00100744
0.00753852
0.000672079
0.000355707
29289.5
-353.507
15370.9
-605.13
-44539.6
-162.869
-13984
1511.96
-1973.76
357.189
-240.249
51.6009
-31.1334
7.65737
-3.98784
1.08831
-0.484059
0.147618
-0.0528024
0.0210097
-0.00262665
0.00494039
0.00296847
0.00284382
0.00366119
0.00239693
0.00390447
0.00214387
0.00421537
0.00194142
0.00463758
0.00160843
0.00537829
0.00142404
0.00630054
0.00105005
0.00739205
0.000714731
0.000356828
28953.3
-337.402
15913.9
-615.088
-42668.1
-328.984
-15239.5
1433.06
-2291.25
406.417
-283.689
62.6967
-37.2561
8.99465
-4.81513
1.25923
-0.589144
0.169992
-0.0653906
0.0237063
-0.00417675
0.00515614
0.00265662
0.00277509
0.00349451
0.0022803
0.00377862
0.00195781
0.00402001
0.00156292
0.00453549
0.00134075
0.00518283
0.00105777
0.00613514
0.000844829
0.00722543
0.000608795
0.000334826
28583.1
-307.194
16269.9
-607.133
-40668.6
-438.43
-16369.6
1333.09
-2649.71
430.817
-337.072
68.6686
-44.5063
9.78896
-5.77836
1.37099
-0.711234
0.185247
-0.0800026
0.0253966
-0.00594693
0.00516807
0.00230944
0.00262714
0.00328094
0.00216007
0.0035318
0.00193132
0.00388894
0.00177389
0.00437792
0.00157011
0.00507093
0.00129731
0.00601807
0.000978608
0.00709718
0.000676482
0.000339629
28182.9
-286.534
16481.3
-614.648
-38624.9
-476.753
-17374.2
1373.96
-3028.8
463.413
-395.926
74.8297
-52.4403
10.5714
-6.83276
1.47876
-0.845383
0.199635
-0.0960249
0.0269676
-0.00784644
0.00518129
0.0019799
0.00248628
0.00312861
0.00201729
0.00343285
0.00178085
0.00376806
0.00155534
0.00422519
0.00130769
0.00490252
0.00104582
0.00586739
0.000826859
0.00693862
0.000593229
0.000318484
27744.3
-272.817
16654.8
-626.407
-36463.9
-451.177
-18395.6
1486.67
-3437.06
502.079
-460.509
82.202
-61.0582
11.3987
-7.9765
1.58345
-0.99109
0.213429
-0.113377
0.0284377
-0.00987228
0.00519959
0.00164717
0.00237227
0.00297029
0.00191087
0.00329033
0.00169159
0.00362034
0.00147636
0.00407777
0.0012243
0.00478618
0.00100718
0.00575023
0.000818683
0.00680857
0.000588993
0.000317957
27270
-269.143
16876.2
-643.983
-34179.6
-441.411
-19505.4
1604.89
-3879.84
561.186
-532.055
91.8929
-70.4132
12.276
-9.20832
1.68451
-1.14806
0.226302
-0.131987
0.0297751
-0.0120093
0.00522499
0.001318
0.00228726
0.00282264
0.00183209
0.00315356
0.00162946
0.00346916
0.00144353
0.00395486
0.00128279
0.00468547
0.00106728
0.0056344
0.000823254
0.00667958
0.000598981
0.000320271
26765.1
-262.317
17133.3
-666.081
-31745.4
-448.912
-20689.7
1756.22
-4376.56
637.727
-612.938
103.431
-80.5645
13.1218
-10.5267
1.76959
-1.31575
0.23683
-0.151757
0.0308356
-0.0142422
0.00525158
0.000991494
0.00223885
0.00268545
0.00179198
0.00303474
0.00159812
0.00337221
0.00140584
0.00383219
0.00118574
0.00455437
0.00106838
0.00552068
0.000837686
0.0065462
0.000558796
0.000312699
26218.7
-247.705
17410.1
-650.676
-29099.2
-459.805
-21967.3
1918.69
-4944.09
716.138
-705.164
118.053
-91.506
13.881
-11.9202
1.84292
-1.49248
0.246652
-0.172473
0.0317584
-0.0165447
0.00526048
0.000669164
0.00219805
0.00255348
0.0017624
0.00291119
0.00158095
0.00323874
0.00141987
0.00376501
0.00126866
0.00442975
0.000985338
0.00537849
0.000789689
0.00642777
0.000621819
0.000323633
25671.1
-254.195
17654.2
-639.185
-26221.1
-454.758
-23348.8
2044.27
-5581.77
844.565
-812.093
135.28
-103.174
14.2786
-13.3794
1.88452
-1.67787
0.252812
-0.194049
0.0321562
-0.0188981
0.0051917
0.00035318
0.0021183
0.00242926
0.00169119
0.00280712
0.00150788
0.00314653
0.00132343
0.00360195
0.00110069
0.00432347
0.000861884
0.00529242
0.000721241
0.00628348
0.000532354
0.000314454
25144.5
-231.944
17891
-615.154
-23174.3
-448.28
-24740.4
2182.08
-6340.62
989.515
-936.918
143.121
-115.254
14.0841
-14.8794
1.90693
-1.86929
0.257404
-0.216126
0.0322499
-0.021273
0.00510149
4.16812e-05
0.00207655
0.00230307
0.00167261
0.00268728
0.00150764
0.00300995
0.00134888
0.00346374
0.00116739
0.00424665
0.00114269
0.00519505
0.000911545
0.00617746
0.000627295
0.000324235
24617.8
-202.323
18106
-502.365
-19944.9
-432.006
-26136.4
2332.33
-7248.64
1070.78
-1070.68
158.736
-127.189
14.5004
-16.4041
1.94872
-2.06569
0.261267
-0.238476
0.0323155
-0.0236234
0.005119
-0.000254554
0.00215156
0.00218889
0.00175869
0.00258357
0.00160016
0.00289806
0.00145942
0.00344937
0.00129857
0.00411969
0.00100182
0.0050477
0.000745402
0.00602919
0.000553769
0.000315979
24203.2
-215.86
18195.8
-470.405
-16528.9
-383.564
-27618
2183.25
-8230.85
1134.61
-1220.89
156.165
-139.56
13.8008
-17.9726
1.94692
-2.26651
0.265242
-0.26099
0.0320399
-0.025942
0.00494984
-0.00054427
0.00207794
0.00207856
0.001686
0.00249111
0.00150207
0.00279834
0.00131656
0.00327572
0.00116555
0.00397808
0.000946948
0.00494781
0.000771632
0.0059122
0.000584695
0.000330699
23848.3
-160.382
18307.6
-266.293
-13337.9
-315.077
-28864.1
2038.52
-9288.14
1233.67
-1369.84
108.217
-151.308
15.1888
-19.5443
1.56274
-2.47219
0.212122
-0.28354
0.0255449
-0.0281983
0.00409203
-0.000834892
0.00186221
0.00194983
0.0015641
0.00236858
0.00144151
0.00270419
0.00132307
0.0031471
0.0010418
0.00388072
0.00090862
0.00484983
0.000773536
0.00578655
0.000575621
0.000319367
23698.1
-36.431
18241
39.4863
-10396.7
-167.271
-29837.1
1874.65
-10504.5
1103.91
-1467.63
50.074
-164.888
10.5156
-20.8137
1.50903
-2.63766
0.180544
-0.301497
0.0209988
-0.0299598
0.00360271
-0.00105716
0.00183248
0.00186356
0.00155405
0.00228991
0.00137059
0.00252787
0.00118765
0.00306831
0.0010096
0.00380528
0.000851826
0.00474552
0.000715803
0.00565908
0.000568928
0.000326542
23802.8
26.6834
17963.2
118.648
-7832.86
18.6695
-30766.9
782.466
-11643.1
529.64
-1509.44
0.408462
-173.915
4.2964
-22.0692
1.2664
-2.77994
0.170929
-0.316139
0.0208655
-0.031366
0.00362164
-0.00126591
0.00183555
0.00173374
0.00156606
0.00216774
0.00140081
0.00241564
0.00123524
0.00297444
0.00124385
0.00372891
0.00106453
0.00466768
0.000840609
0.00553785
0.000601971
0.00033024
23931.8
84.1466
17828.5
251.064
-6870.59
79.8221
-31076.9
-113.805
-12214.2
-1.41007
-1505.32
-34.1261
-176.968
-2.0845
-23.1102
0.945181
-2.9145
0.206114
-0.330732
0.0288451
-0.0327927
0.00460291
-0.00146908
0.00194404
0.00161616
0.00159723
0.00205654
0.00141881
0.0024211
0.00121424
0.00286717
0.00107539
0.00360248
0.00103466
0.00454051
0.000838024
0.00540118
0.000592541
0.000329038
24168
170.124
17598.1
408.089
-7117.6
157.967
-30943.8
-549.983
-12246.2
-239.351
-1471.09
-104.981
-173.898
-6.7672
-23.8164
1.55764
-3.07435
0.336045
-0.351362
0.0488542
-0.0349282
0.00678941
-0.00173197
0.00209229
0.0014885
0.00157225
0.0019184
0.00141604
0.00233261
0.00131334
0.00284267
0.00114967
0.00349084
0.000871986
0.00440897
0.000737837
0.00526792
0.000570347
0.000330869
24507.5
323.725
17260.1
679.972
-8023.21
318.007
-30567.8
-1333.63
-12089
-699.617
-1365.54
-177.979
-165.415
-1.90724
-24.9902
2.65478
-3.33473
0.568481
-0.387358
0.085981
-0.0387218
0.0109036
-0.00212838
0.00238473
0.00137612
0.00153746
0.00184867
0.001348
0.00222772
0.00117336
0.00267471
0.000968749
0.00341426
0.000852069
0.00431873
0.000738532
0.00514613
0.000584629
0.0003267
25020.2
279.427
16768.8
788.962
-10147.3
533.591
-29790.1
-2459.53
-11499.2
-1451.89
-1175.11
-182.922
-160.741
8.29709
-27.0059
4.96891
-3.77463
1.01651
-0.451958
0.155573
-0.04564
0.0186956
-0.00277779
0.00302305
0.00123907
0.00157534