/*--------------------------------*- C++ -*----------------------------------*\
| =========                 |                                                 |
| \\      /  F ield         | OpenFOAM: The Open Source CFD Toolbox           |
|  \\    /   O peration     | Version:  dev                                   |
|   \\  /    A nd           | Web:      www.OpenFOAM.org                      |
|    \\/     M anipulation  |                                                 |
\*---------------------------------------------------------------------------*/
FoamFile
{
    version     2.0;
    format      ascii;
    class       volScalarField;
    location    "100";
    object      N2;
}
// * * * * * * * * * * * * * * * * * * * * * * * * * * * * * * * * * * * * * //

dimensions      [0 0 0 0 0 0 0];

internalField   nonuniform List<scalar> 
4000
(
0.77
0.77
0.77
0.77
0.77
0.77
0.77
0.77
0.77
0.77
0.77
0.77
0.77
0.77
0.77
0.77
0.77
0.77
0.77
0.77
0.77
0.77
0.77
0.77
0.77
0.77
0.77
0.77
0.77
0.77
0.77
0.77
0.77
0.77
0.77
0.77
0.77
0.77
0.77
0.77
0.77
0.77
0.77
0.77
0.77
0.77
0.77
0.77
0.77
0.77
0.77
0.77
0.77
0.77
0.77
0.77
0.77
0.77
0.77
0.77
0.77
0.77
0.77
0.77
0.77
0.77
0.77
0.77
0.77
0.77
0.77
0.77
0.77
0.77
0.77
0.77
0.77
0.77
0.77
0.77
0.77
0.77
0.77
0.77
0.77
0.77
0.77
0.77
0.77
0.77
0.77
0.77
0.77
0.77
0.77
0.77
0.77
0.77
0.77
0.77
0.77
0.77
0.77
0.77
0.77
0.77
0.77
0.77
0.77
0.77
0.77
0.77
0.77
0.77
0.77
0.77
0.77
0.77
0.77
0.77
0.77
0.77
0.77
0.77
0.77
0.77
0.77
0.77
0.77
0.77
0.77
0.77
0.77
0.77
0.77
0.77
0.77
0.77
0.77
0.77
0.77
0.77
0.77
0.77
0.77
0.77
0.77
0.77
0.77
0.77
0.77
0.77
0.77
0.77
0.77
0.77
0.77
0.77
0.77
0.77
0.77
0.77
0.77
0.77
0.77
0.77
0.77
0.77
0.77
0.77
0.77
0.77
0.77
0.77
0.77
0.77
0.77
0.77
0.77
0.77
0.77
0.77
0.77
0.77
0.77
0.77
0.77
0.77
0.77
0.77
0.77
0.77
0.77
0.77
0.77
0.77
0.77
0.77
0.77
0.77
0.77
0.77
0.77
0.77
0.77
0.77
0.77
0.77
0.77
0.77
0.77
0.77
0.77
0.77
0.77
0.77
0.77
0.77
0.77
0.77
0.77
0.77
0.77
0.77
0.77
0.77
0.77
0.77
0.77
0.77
0.77
0.77
0.77
0.77
0.77
0.77
0.77
0.77
0.77
0.77
0.77
0.77
0.77
0.77
0.77
0.77
0.77
0.77
0.77
0.77
0.77
0.77
0.77
0.77
0.77
0.77
0.77
0.77
0.77
0.77
0.77
0.77
0.77
0.77
0.77
0.77
0.77
0.77
0.77
0.77
0.77
0.77
0.77
0.77
0.77
0.77
0.77
0.77
0.77
0.77
0.77
0.77
0.77
0.77
0.77
0.77
0.77
0.77
0.77
0.77
0.77
0.77
0.77
0.77
0.77
0.77
0.77
0.77
0.77
0.77
0.77
0.77
0.77
0.77
0.77
0.77
0.77
0.77
0.77
0.77
0.77
0.77
0.77
0.77
0.77
0.77
0.77
0.77
0.77
0.77
0.77
0.77
0.77
0.77
0.77
0.77
0.77
0.77
0.77
0.77
0.77
0.77
0.77
0.77
0.77
0.77
0.77
0.77
0.77
0.77
0.77
0.77
0.77
0.77
0.77
0.77
0.77
0.77
0.77
0.77
0.77
0.77
0.77
0.77
0.77
0.77
0.77
0.77
0.77
0.77
0.77
0.77
0.77
0.77
0.77
0.77
0.77
0.77
0.77
0.77
0.77
0.77
0.77
0.77
0.77
0.77
0.77
0.77
0.77
0.77
0.77
0.77
0.77
0.77
0.77
0.77
0.77
0.77
0.77
0.77
0.77
0.77
0.77
0.77
0.77
0.77
0.77
0.77
0.77
0.77
0.77
0.77
0.77
0.77
0.77
0.77
0.77
0.77
0.77
0.77
0.77
0.77
0.77
0.77
0.77
0.77
0.77
0.77
0.77
0.77
0.77
0.77
0.77
0.77
0.77
0.77
0.77
0.77
0.77
0.77
0.77
0.77
0.77
0.77
0.77
0.77
0.77
0.77
0.77
0.77
0.77
0.77
0.77
0.77
0.77
0.77
0.77
0.77
0.77
0.77
0.77
0.77
0.77
0.77
0.77
0.77
0.77
0.77
0.77
0.77
0.77
0.77
0.77
0.77
0.77
0.77
0.77
0.77
0.77
0.77
0.77
0.77
0.77
0.77
0.77
0.77
0.77
0.77
0.77
0.77
0.77
0.77
0.77
0.77
0.77
0.77
0.77
0.77
0.77
0.77
0.77
0.77
0.77
0.77
0.77
0.77
0.77
0.77
0.77
0.77
0.77
0.77
0.77
0.77
0.77
0.77
0.77
0.77
0.77
0.77
0.77
0.77
0.77
0.77
0.77
0.77
0.77
0.77
0.77
0.77
0.77
0.77
0.77
0.77
0.77
0.77
0.77
0.77
0.77
0.77
0.77
0.77
0.77
0.77
0.77
0.77
0.77
0.77
0.77
0.77
0.77
0.77
0.77
0.77
0.77
0.77
0.77
0.77
0.77
0.77
0.77
0.77
0.77
0.77
0.77
0.77
0.77
0.77
0.77
0.77
0.77
0.77
0.77
0.77
0.77
0.77
0.77
0.77
0.77
0.77
0.77
0.77
0.77
0.77
0.77
0.77
0.77
0.77
0.77
0.77
0.77
0.77
0.77
0.77
0.77
0.77
0.77
0.77
0.77
0.77
0.77
0.77
0.77
0.77
0.77
0.77
0.77
0.77
0.77
0.77
0.77
0.77
0.77
0.77
0.77
0.77
0.77
0.77
0.77
0.77
0.77
0.77
0.77
0.77
0.77
0.77
0.77
0.77
0.77
0.77
0.77
0.77
0.77
0.77
0.77
0.77
0.77
0.77
0.77
0.77
0.77
0.77
0.77
0.77
0.77
0.77
0.77
0.77
0.77
0.77
0.77
0.77
0.77
0.77
0.77
0.77
0.77
0.77
0.77
0.77
0.77
0.77
0.77
0.77
0.77
0.77
0.77
0.77
0.77
0.77
0.77
0.77
0.77
0.77
0.77
0.77
0.77
0.77
0.77
0.77
0.77
0.77
0.77
0.77
0.77
0.77
0.77
0.77
0.77
0.77
0.77
0.77
0.77
0.77
0.77
0.77
0.77
0.77
0.77
0.77
0.77
0.77
0.77
0.77
0.77
0.77
0.77
0.77
0.77
0.77
0.77
0.77
0.77
0.77
0.77
0.77
0.77
0.77
0.77
0.77
0.77
0.77
0.77
0.77
0.77
0.77
0.77
0.77
0.77
0.77
0.77
0.77
0.77
0.77
0.77
0.77
0.77
0.77
0.77
0.77
0.77
0.77
0.77
0.77
0.77
0.77
0.77
0.77
0.77
0.77
0.770003
0.770001
0.77
0.77
0.77
0.77
0.77
0.77
0.77
0.77
0.77
0.77
0.77
0.77
0.77
0.77
0.77
0.77
0.77
0.77
0.770031
0.77001
0.770002
0.77
0.77
0.77
0.77
0.77
0.77
0.77
0.77
0.77
0.77
0.77
0.77
0.77
0.77
0.77
0.77
0.77
0.770365
0.770094
0.770014
0.770002
0.77
0.77
0.77
0.77
0.77
0.77
0.77
0.77
0.77
0.77
0.77
0.77
0.77
0.77
0.77
0.77
0.775108
0.77105
0.770119
0.770012
0.770001
0.77
0.77
0.77
0.77
0.77
0.77
0.77
0.77
0.77
0.77
0.77
0.77
0.77
0.77
0.77
0.826354
0.779641
0.770891
0.770069
0.770005
0.77
0.77
0.77
0.77
0.77
0.77
0.77
0.77
0.77
0.77
0.77
0.77
0.77
0.77
0.77
0.746325
0.774729
0.77102
0.770109
0.77001
0.770001
0.77
0.77
0.77
0.77
0.77
0.77
0.77
0.77
0.77
0.77
0.77
0.77
0.77
0.77
0.711163
0.760997
0.769766
0.770056
0.770009
0.770001
0.77
0.77
0.77
0.77
0.77
0.77
0.77
0.77
0.77
0.77
0.77
0.77
0.77
0.77
0.688555
0.749803
0.76809
0.769948
0.770003
0.770001
0.77
0.77
0.77
0.77
0.77
0.77
0.77
0.77
0.77
0.77
0.77
0.77
0.77
0.77
0.671895
0.742722
0.765314
0.769681
0.769985
0.769999
0.77
0.77
0.77
0.77
0.77
0.77
0.77
0.77
0.77
0.77
0.77
0.77
0.77
0.77
0.661237
0.737359
0.762738
0.769229
0.769947
0.769996
0.77
0.77
0.77
0.77
0.77
0.77
0.77
0.77
0.77
0.77
0.77
0.77
0.77
0.77
0.653458
0.731178
0.760118
0.768727
0.769899
0.769992
0.769999
0.77
0.77
0.77
0.77
0.77
0.77
0.77
0.77
0.77
0.77
0.77
0.77
0.77
0.64745
0.726089
0.757466
0.768036
0.769815
0.769984
0.769999
0.77
0.77
0.77
0.77
0.77
0.77
0.77
0.77
0.77
0.77
0.77
0.77
0.77
0.642743
0.721866
0.755008
0.767388
0.769745
0.769977
0.769998
0.77
0.77
0.77
0.77
0.77
0.77
0.77
0.77
0.77
0.77
0.77
0.77
0.77
0.638807
0.718118
0.752562
0.766492
0.769606
0.769963
0.769997
0.77
0.77
0.77
0.77
0.77
0.77
0.77
0.77
0.77
0.77
0.77
0.77
0.77
0.635581
0.714964
0.750302
0.765751
0.76951
0.769953
0.769995
0.77
0.77
0.77
0.77
0.77
0.77
0.77
0.77
0.77
0.77
0.77
0.77
0.77
0.632733
0.712077
0.74822
0.764759
0.769315
0.769931
0.769993
0.769999
0.77
0.77
0.77
0.77
0.77
0.77
0.77
0.77
0.77
0.77
0.77
0.77
0.63023
0.70962
0.745983
0.763852
0.769176
0.769916
0.769992
0.769999
0.77
0.77
0.77
0.77
0.77
0.77
0.77
0.77
0.77
0.77
0.77
0.77
0.627921
0.707257
0.743959
0.76284
0.768942
0.769886
0.769989
0.769999
0.77
0.77
0.77
0.77
0.77
0.77
0.77
0.77
0.77
0.77
0.77
0.77
0.625721
0.704889
0.742609
0.762034
0.768747
0.769861
0.769986
0.769999
0.77
0.77
0.77
0.77
0.77
0.77
0.77
0.77
0.77
0.77
0.77
0.77
0.623712
0.702659
0.741617
0.761242
0.768522
0.769828
0.769982
0.769998
0.77
0.77
0.77
0.77
0.77
0.77
0.77
0.77
0.77
0.77
0.77
0.77
0.621905
0.700512
0.740385
0.760494
0.768281
0.769791
0.769978
0.769998
0.77
0.77
0.77
0.77
0.77
0.77
0.77
0.77
0.77
0.77
0.77
0.77
0.620283
0.698379
0.738967
0.759724
0.768022
0.76975
0.769973
0.769997
0.77
0.77
0.77
0.77
0.77
0.77
0.77
0.77
0.77
0.77
0.77
0.77
0.618799
0.696198
0.737525
0.75889
0.767738
0.769705
0.769968
0.769997
0.77
0.77
0.77
0.77
0.77
0.77
0.77
0.77
0.77
0.77
0.77
0.77
0.61736
0.693976
0.736061
0.758005
0.76743
0.769653
0.769963
0.769996
0.77
0.77
0.77
0.77
0.77
0.77
0.77
0.77
0.77
0.77
0.77
0.77
0.615998
0.691623
0.734532
0.757046
0.767073
0.769593
0.769957
0.769996
0.77
0.77
0.77
0.77
0.77
0.77
0.77
0.77
0.77
0.77
0.77
0.77
0.614774
0.689325
0.732945
0.755998
0.766685
0.769527
0.76995
0.769995
0.77
0.77
0.77
0.77
0.77
0.77
0.77
0.77
0.77
0.77
0.77
0.77
0.613468
0.687039
0.731328
0.754897
0.766236
0.769447
0.769943
0.769994
0.769999
0.77
0.77
0.77
0.77
0.77
0.77
0.77
0.77
0.77
0.77
0.77
0.612279
0.684749
0.729726
0.753746
0.765701
0.769365
0.769936
0.769994
0.769999
0.77
0.77
0.77
0.77
0.77
0.77
0.77
0.77
0.77
0.77
0.77
0.611324
0.682931
0.728088
0.752486
0.765126
0.769274
0.769928
0.769993
0.769999
0.77
0.77
0.77
0.77
0.77
0.77
0.77
0.77
0.77
0.77
0.77
0.61023
0.681144
0.726595
0.7513
0.76454
0.769179
0.76992
0.769992
0.769999
0.77
0.77
0.77
0.77
0.77
0.77
0.77
0.77
0.77
0.77
0.77
0.60924
0.679998
0.725346
0.750249
0.763897
0.769109
0.769911
0.769991
0.769999
0.77
0.77
0.77
0.77
0.77
0.77
0.77
0.77
0.77
0.77
0.77
0.608917
0.680055
0.724129
0.749199
0.763261
0.769071
0.769903
0.769991
0.769999
0.77
0.77
0.77
0.77
0.77
0.77
0.77
0.77
0.77
0.77
0.77
0.608996
0.680423
0.723861
0.748667
0.762911
0.769065
0.7699
0.76999
0.769999
0.77
0.77
0.77
0.77
0.77
0.77
0.77
0.77
0.77
0.77
0.77
0.609318
0.681225
0.723918
0.748671
0.762878
0.769079
0.769901
0.76999
0.769999
0.77
0.77
0.77
0.77
0.77
0.77
0.77
0.77
0.77
0.77
0.77
0.610059
0.682568
0.724268
0.748897
0.762964
0.769132
0.769904
0.769989
0.769999
0.77
0.77
0.77
0.77
0.77
0.77
0.77
0.77
0.77
0.77
0.77
0.611497
0.684917
0.725155
0.749527
0.763273
0.76923
0.769904
0.769987
0.769999
0.77
0.77
0.77
0.77
0.77
0.77
0.77
0.77
0.77
0.77
0.77
0.61275
0.687446
0.726746
0.750738
0.763981
0.769336
0.769896
0.769984
0.769998
0.77
0.77
0.77
0.77
0.77
0.77
0.77
0.77
0.77
0.77
0.77
0.614149
0.689136
0.728131
0.752033
0.764964
0.769416
0.769877
0.769979
0.769997
0.77
0.77
0.77
0.77
0.77
0.77
0.77
0.77
0.77
0.77
0.77
0.6159
0.691877
0.730011
0.75375
0.766042
0.769441
0.769838
0.76997
0.769996
0.77
0.77
0.77
0.77
0.77
0.77
0.77
0.77
0.77
0.77
0.77
0.616367
0.694065
0.732673
0.755682
0.766759
0.7694
0.769763
0.769955
0.769994
0.769999
0.77
0.77
0.77
0.77
0.77
0.77
0.77
0.77
0.77
0.77
0.615913
0.693771
0.733265
0.756374
0.766896
0.769256
0.76965
0.76993
0.769991
0.769999
0.77
0.77
0.77
0.77
0.77
0.77
0.77
0.77
0.77
0.77
0.614781
0.691704
0.732441
0.756127
0.766723
0.768934
0.769401
0.769882
0.769985
0.769998
0.77
0.77
0.77
0.77
0.77
0.77
0.77
0.77
0.77
0.77
0.6132
0.686761
0.73
0.754772
0.765895
0.768222
0.76897
0.769801
0.769976
0.769997
0.77
0.77
0.77
0.77
0.77
0.77
0.77
0.77
0.77
0.77
0.610863
0.679241
0.726375
0.752474
0.764221
0.76714
0.768301
0.769674
0.769961
0.769995
0.77
0.77
0.77
0.77
0.77
0.77
0.77
0.77
0.77
0.77
0.608038
0.670041
0.718973
0.74553
0.759988
0.76546
0.767399
0.769497
0.769937
0.769993
0.769999
0.77
0.77
0.77
0.77
0.77
0.77
0.77
0.77
0.77
0.603987
0.661181
0.708861
0.737596
0.756205
0.763965
0.766424
0.769311
0.769908
0.769989
0.769999
0.77
0.77
0.77
0.77
0.77
0.77
0.77
0.77
0.77
0.598696
0.652306
0.699021
0.731236
0.750041
0.760355
0.765233
0.769201
0.769888
0.769986
0.769999
0.77
0.77
0.77
0.77
0.77
0.77
0.77
0.77
0.77
0.594371
0.645956
0.691164
0.726793
0.744482
0.754727
0.76479
0.76922
0.769883
0.769984
0.769999
0.77
0.77
0.77
0.77
0.77
0.77
0.77
0.77
0.77
0.592497
0.644601
0.686978
0.720702
0.740805
0.752352
0.765236
0.769331
0.769888
0.769983
0.769999
0.77
0.77
0.77
0.77
0.77
0.77
0.77
0.77
0.77
0.592504
0.645342
0.68665
0.718597
0.739613
0.752364
0.766179
0.769471
0.769897
0.769984
0.769999
0.77
0.77
0.77
0.77
0.77
0.77
0.77
0.77
0.77
0.593735
0.646873
0.687884
0.719063
0.739747
0.752976
0.7672
0.769585
0.769905
0.769985
0.769999
0.77
0.77
0.77
0.77
0.77
0.77
0.77
0.77
0.77
0.603607
0.648469
0.689409
0.720403
0.740618
0.754076
0.767955
0.769662
0.769913
0.769987
0.769999
0.77
0.77
0.77
0.77
0.77
0.77
0.77
0.77
0.77
0.619667
0.651999
0.691498
0.722164
0.741816
0.755734
0.768541
0.769711
0.76992
0.769989
0.769999
0.77
0.77
0.77
0.77
0.77
0.77
0.77
0.77
0.77
0.63312
0.656371
0.695277
0.724095
0.743948
0.758576
0.768985
0.769746
0.76993
0.76999
0.769999
0.77
0.77
0.77
0.77
0.77
0.77
0.77
0.77
0.77
0.64487
0.66035
0.700023
0.726917
0.746987
0.762032
0.769289
0.769772
0.769939
0.76999
0.769998
0.769999
0.77
0.77
0.77
0.77
0.77
0.77
0.77
0.77
0.655634
0.664548
0.704351
0.730451
0.750306
0.765005
0.769471
0.769796
0.769945
0.769989
0.769996
0.769998
0.769999
0.77
0.77
0.77
0.77
0.77
0.77
0.77
0.665959
0.671936
0.711564
0.736685
0.754178
0.766996
0.769554
0.769818
0.769947
0.769985
0.769992
0.769996
0.769998
0.769999
0.77
0.77
0.77
0.77
0.77
0.77
0.675018
0.681823
0.718476
0.741243
0.757708
0.768134
0.769596
0.769832
0.769944
0.769976
0.769983
0.769989
0.769994
0.769997
0.769999
0.77
0.77
0.77
0.77
0.77
0.682328
0.688587
0.721165
0.743891
0.76085
0.768746
0.769623
0.769834
0.769932
0.769955
0.769964
0.769974
0.769984
0.769992
0.769997
0.769999
0.77
0.77
0.77
0.77
0.688776
0.694974
0.725151
0.748508
0.76335
0.769059
0.769632
0.769824
0.769898
0.769911
0.769923
0.769943
0.769963
0.76998
0.769992
0.769998
0.77
0.77
0.77
0.77
0.694734
0.700939
0.728953
0.751945
0.765165
0.769211
0.769625
0.769785
0.769825
0.769831
0.769847
0.769878
0.769915
0.769952
0.769979
0.769994
0.769999
0.77
0.77
0.77
0.69993
0.706266
0.732494
0.754908
0.766485
0.769259
0.769588
0.769681
0.769684
0.769681
0.769702
0.769757
0.769826
0.769897
0.769953
0.769986
0.769997
0.769999
0.77
0.77
0.704964
0.712028
0.738705
0.757785
0.767387
0.769254
0.76949
0.769527
0.769499
0.769467
0.769474
0.769557
0.769673
0.769799
0.769905
0.769974
0.769993
0.769998
0.77
0.77
0.709974
0.717675
0.74167
0.759844
0.767903
0.769212
0.769292
0.769267
0.769211
0.769144
0.769148
0.769279
0.769471
0.76966
0.769826
0.769955
0.769987
0.769996
0.769999
0.77
0.714161
0.72157
0.743735
0.761245
0.768095
0.769088
0.769041
0.768969
0.768781
0.768656
0.76874
0.768916
0.769134
0.769407
0.769678
0.769922
0.769974
0.769992
0.769999
0.77
0.717496
0.724911
0.746652
0.762418
0.768112
0.768821
0.768726
0.76856
0.768293
0.768189
0.768171
0.768255
0.768574
0.769011
0.769435
0.769861
0.769949
0.769985
0.769997
0.77
0.720636
0.727063
0.748682
0.763317
0.768083
0.768542
0.768411
0.768125
0.767911
0.767538
0.767176
0.767281
0.767756
0.768419
0.769055
0.769741
0.769904
0.769971
0.769995
0.769999
0.723099
0.729978
0.750388
0.763788
0.76796
0.768233
0.768026
0.767817
0.767287
0.766519
0.765981
0.766014
0.766633
0.767556
0.768475
0.769533
0.769831
0.769949
0.76999
0.769998
0.725038
0.732491
0.751432
0.763871
0.767667
0.76797
0.767779
0.767333
0.766491
0.765456
0.764632
0.764533
0.765131
0.766342
0.767671
0.769156
0.769718
0.769914
0.769982
0.769997
0.728387
0.733244
0.751464
0.763718
0.767472
0.767746
0.767367
0.766806
0.765935
0.764723
0.763556
0.762933
0.763247
0.764683
0.76663
0.768549
0.76954
0.769862
0.76997
0.769995
0.729143
0.733537
0.750977
0.763373
0.767183
0.767295
0.766866
0.766411
0.765656
0.76434
0.762724
0.761424
0.761196
0.762572
0.765124
0.767741
0.769278
0.769786
0.769952
0.769991
0.730734
0.733458
0.750331
0.762557
0.766558
0.766764
0.766422
0.766083
0.765487
0.764193
0.762317
0.760396
0.759334
0.760203
0.763129
0.766634
0.768901
0.769679
0.769927
0.769984
0.731786
0.733316
0.74889
0.761027
0.765731
0.766198
0.765928
0.765655
0.765319
0.764305
0.762458
0.76012
0.757998
0.757887
0.760739
0.765155
0.768392
0.769538
0.769892
0.769974
0.732313
0.732721
0.744476
0.757706
0.764274
0.765334
0.765223
0.764989
0.764996
0.764519
0.763015
0.760588
0.757429
0.755923
0.758147
0.763271
0.767731
0.769362
0.769849
0.769961
0.732785
0.731858
0.741014
0.754055
0.761457
0.763703
0.764139
0.763961
0.764276
0.764547
0.763643
0.761526
0.757619
0.754507
0.755641
0.761034
0.766899
0.769146
0.769797
0.769943
0.734405
0.73146
0.736686
0.746084
0.755696
0.760647
0.76231
0.762457
0.762946
0.764127
0.764045
0.762511
0.758382
0.753681
0.753459
0.758557
0.765917
0.768893
0.769736
0.769921
0.735134
0.730863
0.734698
0.740927
0.749047
0.755761
0.75927
0.76026
0.760961
0.763058
0.764057
0.763182
0.759421
0.753415
0.751742
0.756
0.764835
0.768626
0.769672
0.769894
0.735469
0.730399
0.732797
0.736447
0.742653
0.749359
0.754832
0.757151
0.75829
0.761258
0.763567
0.763336
0.760343
0.753597
0.75057
0.753749
0.763696
0.768348
0.769606
0.769864
0.735395
0.729286
0.730068
0.733776
0.737939
0.743472
0.749222
0.753163
0.754935
0.758816
0.762657
0.763131
0.760841
0.754024
0.749867
0.752038
0.762714
0.768112
0.769547
0.769834
0.735415
0.726817
0.726538
0.73013
0.734617
0.738919
0.743855
0.748505
0.751097
0.756045
0.761445
0.762567
0.760849
0.754341
0.749401
0.750972
0.762018
0.767952
0.769509
0.769811
0.736527
0.726007
0.7225
0.72581
0.731
0.735516
0.739752
0.743925
0.747214
0.752865
0.759609
0.761463
0.760199
0.754263
0.748878
0.75033
0.761699
0.767893
0.769497
0.769797
0.738789
0.726384
0.718561
0.720774
0.725396
0.732157
0.736573
0.740493
0.743866
0.748913
0.7572
0.759828
0.758879
0.753494
0.748167
0.749923
0.761938
0.767976
0.769518
0.769794
0.741114
0.72718
0.717478
0.715718
0.720357
0.726739
0.733719
0.737915
0.741435
0.746049
0.754797
0.757788
0.756925
0.751962
0.747281
0.749832
0.762743
0.768199
0.769571
0.769804
0.743531
0.728882
0.717767
0.714092
0.716473
0.721762
0.728864
0.735634
0.739091
0.742873
0.749986
0.754416
0.753943
0.749743
0.746316
0.750408
0.76399
0.768511
0.769641
0.769822
0.745743
0.732395
0.720282
0.713001
0.713042
0.717476
0.72418
0.731718
0.737414
0.740795
0.746832
0.751045
0.750627
0.747121
0.745422
0.752374
0.765382
0.768849
0.769716
0.769842
0.746108
0.733813
0.722747
0.712974
0.710839
0.714091
0.719878
0.727463
0.734565
0.738744
0.742733
0.746791
0.746871
0.744598
0.744695
0.755979
0.76666
0.769153
0.76978
0.76986
0.745676
0.7344
0.724994
0.714216
0.710179
0.711426
0.716084
0.723259
0.730513
0.736814
0.740051
0.74312
0.743422
0.74253
0.744883
0.760396
0.767772
0.769395
0.769829
0.769876
0.744551
0.733959
0.72599
0.716044
0.710273
0.709704
0.713051
0.71931
0.726435
0.733344
0.737705
0.740165
0.740498
0.741401
0.747831
0.76406
0.768545
0.769564
0.769863
0.769889
0.742758
0.732274
0.725428
0.71754
0.710592
0.708836
0.710864
0.715881
0.722579
0.729463
0.735014
0.737893
0.738222
0.741548
0.753994
0.766412
0.76905
0.769672
0.769886
0.769902
0.741019
0.729409
0.722602
0.716998
0.710538
0.708052
0.708972
0.712697
0.718444
0.724598
0.729289
0.73331
0.736522
0.743721
0.761213
0.767983
0.769353
0.769737
0.769901
0.769915
0.739416
0.726617
0.718761
0.71442
0.709947
0.70752
0.707686
0.710347
0.714917
0.720091
0.724596
0.73005
0.73746
0.750705
0.765713
0.768716
0.769495
0.769775
0.769913
0.769927
0.738016
0.724418
0.716051
0.711791
0.709071
0.7073
0.707457
0.709758
0.71373
0.718557
0.723897
0.730678
0.741458
0.760647
0.767434
0.768999
0.769562
0.769801
0.769923
0.769937
0.737304
0.723206
0.714663
0.71055
0.708533
0.707464
0.707757
0.710128
0.714032
0.719
0.725203
0.734591
0.751374
0.764876
0.767993
0.769111
0.769607
0.769825
0.769932
0.769946
0.737393
0.723055
0.714384
0.710332
0.70859
0.707826
0.708421
0.710931
0.714906
0.72047
0.728086
0.740042
0.759478
0.765828
0.768099
0.769167
0.769644
0.769845
0.769941
0.769955
0.738207
0.723689
0.714791
0.710676
0.709022
0.708519
0.709633
0.712547
0.717009
0.723876
0.733185
0.746197
0.76119
0.765791
0.768138
0.769236
0.769687
0.769866
0.769949
0.769962
0.739687
0.725248
0.715972
0.711801
0.710428
0.710379
0.712148
0.716301
0.722785
0.731077
0.739888
0.752004
0.760823
0.765677
0.768294
0.76935
0.769738
0.769886
0.769956
0.769967
0.741196
0.726825
0.717059
0.712998
0.712147
0.713256
0.716211
0.720986
0.727956
0.734735
0.741889
0.751854
0.759917
0.765924
0.76856
0.769464
0.769779
0.769901
0.76996
0.76997
0.743193
0.728377
0.718329
0.713949
0.713132
0.714088
0.717357
0.72247
0.729786
0.736596
0.742998
0.749801
0.760138
0.766565
0.768844
0.769568
0.769814
0.769912
0.769964
0.769974
0.745826
0.731437
0.721198
0.716043
0.715224
0.716965
0.720497
0.726187
0.732875
0.737919
0.742954
0.749873
0.762179
0.767569
0.769184
0.769671
0.769844
0.769922
0.769967
0.769977
0.747325
0.734605
0.724098
0.718172
0.716876
0.718922
0.723539
0.728712
0.733959
0.738815
0.743324
0.75332
0.764921
0.768459
0.769439
0.769743
0.769866
0.76993
0.76997
0.769981
0.747993
0.736179
0.726299
0.720095
0.71815
0.720366
0.72473
0.729794
0.735179
0.740198
0.7456
0.76067
0.767339
0.769094
0.769604
0.769788
0.769881
0.769938
0.769973
0.769985
0.748298
0.736875
0.727985
0.722024
0.720199
0.722258
0.726326
0.731436
0.736908
0.74212
0.753883
0.765354
0.768519
0.7694
0.769686
0.769814
0.769893
0.769945
0.769977
0.769989
0.748453
0.737535
0.729385
0.724127
0.723174
0.724319
0.728374
0.733784
0.739828
0.747132
0.762057
0.767579
0.769088
0.769549
0.769729
0.769832
0.769904
0.769953
0.769982
0.769993
0.74858
0.738123
0.730701
0.726235
0.725294
0.726569
0.730844
0.736657
0.742733
0.756935
0.765982
0.7686
0.769361
0.769626
0.769758
0.769847
0.769914
0.769961
0.769987
0.769995
0.748865
0.738542
0.731449
0.727763
0.72704
0.729095
0.73388
0.740153
0.74951
0.763157
0.767755
0.769079
0.769495
0.769668
0.769776
0.769862
0.76993
0.769972
0.769992
0.769998
0.749721
0.739807
0.733046
0.729678
0.729176
0.731899
0.737163
0.742983
0.757624
0.766168
0.768596
0.769313
0.769561
0.769693
0.769796
0.769886
0.76995
0.769983
0.769995
0.769999
0.75078
0.741229
0.734969
0.731923
0.731796
0.735276
0.740496
0.749342
0.762892
0.767694
0.769025
0.769431
0.769599
0.769721
0.76983
0.769915
0.769966
0.769989
0.769997
0.769999
0.751821
0.74198
0.736462
0.73361
0.734556
0.738293
0.74282
0.756624
0.765843
0.768511
0.769249
0.769494
0.769634
0.769761
0.769865
0.769936
0.769974
0.76999
0.769996
0.769998
0.752796
0.743421
0.738348
0.736252
0.737364
0.740761
0.747698
0.76207
0.767511
0.768956
0.769366
0.769541
0.76968
0.769801
0.76989
0.769945
0.769975
0.769989
0.769996
0.769998
0.753669
0.744721
0.739883
0.738723
0.739829
0.743003
0.755305
0.765536
0.768435
0.76919
0.769437
0.769593
0.769723
0.769825
0.769898
0.769944
0.769971
0.769986
0.769994
0.769998
0.754642
0.745675
0.74128
0.74034
0.741835
0.747995
0.761743
0.767459
0.768915
0.769315
0.769498
0.769636
0.769743
0.769828
0.769891
0.769933
0.769964
0.769983
0.769994
0.769998
0.755795
0.746675
0.742166
0.741788
0.744737
0.755774
0.765606
0.768438
0.769155
0.769395
0.769542
0.769653
0.769739
0.769809
0.769869
0.769923
0.769961
0.769983
0.769994
0.769998
0.757174
0.74838
0.744139
0.744468
0.750601
0.762122
0.767555
0.768911
0.76928
0.769447
0.769558
0.769642
0.769704
0.769781
0.769858
0.76992
0.769961
0.769983
0.769994
0.769998
0.758679
0.750721
0.747844
0.749825
0.757346
0.765821
0.768484
0.769136
0.769347
0.769466
0.769544
0.769589
0.769667
0.769766
0.769852
0.769918
0.76996
0.769984
0.769995
0.769999
0.760108
0.753167
0.751526
0.754537
0.762668
0.767633
0.768914
0.76924
0.769373
0.769453
0.769478
0.769534
0.769642
0.769753
0.769844
0.769915
0.76996
0.769984
0.769995
0.769999
0.761371
0.755494
0.754931
0.759054
0.765788
0.768487
0.769107
0.769281
0.769365
0.769378
0.7694
0.769495
0.769618
0.769732
0.769838
0.769915
0.769961
0.769985
0.769995
0.769999
0.762477
0.757681
0.757941
0.762943
0.767457
0.768885
0.769183
0.769281
0.769289
0.76927
0.769329
0.769451
0.769579
0.769714
0.76983
0.769914
0.769961
0.769985
0.769996
0.769999
0.763423
0.759694
0.760489
0.765608
0.768343
0.769055
0.769197
0.769224
0.769141
0.769162
0.769262
0.769382
0.769534
0.769697
0.769825
0.76991
0.769961
0.769985
0.769996
0.769999
0.764238
0.7614
0.762601
0.767172
0.768769
0.769104
0.769166
0.769056
0.769007
0.769079
0.769179
0.769322
0.769507
0.769673
0.769811
0.769908
0.76996
0.769985
0.769996
0.769999
0.764978
0.762892
0.764494
0.768062
0.768942
0.769096
0.769023
0.768881
0.768913
0.768973
0.769068
0.769235
0.769445
0.769652
0.769803
0.769903
0.769959
0.769986
0.769996
0.769999
0.765625
0.764321
0.766096
0.768553
0.768981
0.769012
0.768815
0.76877
0.76879
0.768818
0.768942
0.769183
0.769419
0.769629
0.769793
0.769899
0.769958
0.769986
0.769996
0.769999
0.766119
0.76556
0.767212
0.768756
0.768959
0.768798
0.76867
0.768612
0.768609
0.768648
0.768844
0.769101
0.769371
0.769605
0.769783
0.769896
0.769957
0.769985
0.769996
0.769999
0.766484
0.766406
0.767881
0.768799
0.768831
0.76863
0.768528
0.76844
0.768371
0.768499
0.768752
0.769038
0.769331
0.769583
0.769772
0.769891
0.769955
0.769984
0.769996
0.769999
0.766799
0.766894
0.768264
0.768796
0.768664
0.768503
0.768323
0.768175
0.768139
0.768322
0.768625
0.768953
0.769274
0.769546
0.769751
0.769881
0.769951
0.769983
0.769996
0.769999
0.767108
0.76725
0.768464
0.768762
0.76856
0.768331
0.768083
0.767833
0.767892
0.768118
0.76845
0.768822
0.769183
0.769491
0.769722
0.769869
0.769947
0.769982
0.769995
0.769999
0.767396
0.767618
0.768521
0.768606
0.768391
0.768119
0.767656
0.767501
0.767611
0.767885
0.768264
0.768681
0.769086
0.769433
0.769692
0.769856
0.769942
0.76998
0.769995
0.769999
0.767588
0.767952
0.76852
0.768429
0.768184
0.767663
0.767252
0.767174
0.767328
0.767648
0.768072
0.768535
0.768981
0.769366
0.769659
0.769843
0.769938
0.769978
0.769994
0.769999
0.767676
0.768151
0.76848
0.76828
0.767842
0.767175
0.766856
0.766825
0.767025
0.767396
0.767868
0.768377
0.768866
0.769294
0.769622
0.76983
0.769934
0.769976
0.769993
0.769999
0.767729
0.768215
0.768384
0.768127
0.76735
0.766716
0.766438
0.766451
0.766699
0.767116
0.767631
0.768182
0.76872
0.769198
0.76957
0.769809
0.769927
0.769973
0.769992
0.769999
0.767782
0.768223
0.768342
0.767862
0.76689
0.76625
0.766
0.766057
0.766349
0.766807
0.767362
0.767958
0.768544
0.769077
0.769501
0.76978
0.769919
0.76997
0.769991
0.769999
0.767881
0.768204
0.768147
0.767405
0.766381
0.76577
0.765569
0.765678
0.766017
0.766509
0.76709
0.767713
0.768337
0.768921
0.769406
0.76974
0.76991
0.769967
0.769989
0.769998
0.767931
0.768065
0.76765
0.766721
0.765815
0.765286
0.76514
0.765287
0.765648
0.766154
0.766752
0.767407
0.768084
0.768735
0.769292
0.76969
0.769899
0.769963
0.769987
0.769998
0.767933
0.767788
0.767315
0.766095
0.765266
0.764787
0.764669
0.764823
0.765181
0.76569
0.766306
0.767004
0.767753
0.768479
0.769121
0.769613
0.769887
0.769959
0.769985
0.769997
0.76793
0.767702
0.766955
0.76561
0.764735
0.764255
0.7641
0.764227
0.764572
0.765089
0.765752
0.766522
0.767343
0.768159
0.7689
0.769499
0.76987
0.769956
0.769983
0.769997
0.767898
0.767467
0.766359
0.764987
0.764126
0.763635
0.763415
0.763496
0.763814
0.764334
0.765034
0.765883
0.766814
0.767744
0.768596
0.76932
0.769846
0.769956
0.769981
0.769996
0.767827
0.767012
0.765866
0.764417
0.763486
0.76286
0.762594
0.762628
0.762909
0.763425
0.764159
0.765083
0.766132
0.767206
0.768196
0.769039
0.769804
0.769951
0.769978
0.769994
0.76774
0.766914
0.765498
0.763898
0.762729
0.761996
0.761651
0.761612
0.761842
0.762336
0.763093
0.764092
0.765273
0.766529
0.767693
0.768693
0.769658
0.769933
0.769974
0.769993
0.767691
0.766718
0.764951
0.763289
0.761985
0.76116
0.760687
0.760547
0.760702
0.761144
0.76187
0.762885
0.76416
0.765624
0.767147
0.768334
0.769292
0.769888
0.769969
0.76999
0.76764
0.766367
0.764428
0.762583
0.761268
0.760403
0.759838
0.759626
0.759689
0.760018
0.760629
0.761558
0.762828
0.764396
0.766266
0.768034
0.768758
0.76978
0.769961
0.769987
0.767653
0.766265
0.764208
0.762178
0.760735
0.75978
0.759264
0.759056
0.759049
0.759218
0.759613
0.76032
0.761404
0.762975
0.765112
0.767295
0.768268
0.769492
0.769947
0.769983
0.767723
0.766358
0.764262
0.762202
0.760592
0.759557
0.75905
0.758872
0.758851
0.75891
0.759079
0.759478
0.760274
0.761525
0.763762
0.766027
0.767923
0.768884
0.769905
0.769979
0.76778
0.766544
0.764716
0.762548
0.760802
0.759631
0.759061
0.758877
0.758872
0.758925
0.759019
0.759182
0.759497
0.760171
0.762419
0.764665
0.766931
0.768272
0.769804
0.769977
0.7678
0.766846
0.765303
0.763323
0.76137
0.759835
0.759176
0.758949
0.758958
0.759055
0.759181
0.759293
0.759386
0.759675
0.76065
0.763208
0.765747
0.767457
0.769541
0.769983
0.767541
0.766995
0.765948
0.764584
0.762924
0.760408
0.759362
0.759068
0.759073
0.759197
0.759413
0.759628
0.75974
0.759737
0.759873
0.761466
0.764336
0.766714
0.768819
0.769981
0.765569
0.766729
0.766204
0.765268
0.764143
0.762974
0.760484
0.759396
0.759193
0.759301
0.759536
0.759889
0.760216
0.760338
0.760179
0.760244
0.762417
0.765664
0.767889
0.769925
0.76298
0.765357
0.76594
0.765498
0.764781
0.763992
0.763245
0.761704
0.760057
0.759591
0.759641
0.759919
0.760388
0.760839
0.760996
0.760533
0.760795
0.764046
0.766816
0.769693
0.76226
0.761148
0.764346
0.765063
0.764851
0.76438
0.763826
0.763024
0.762345
0.761398
0.760743
0.760349
0.760508
0.7609
0.761449
0.761441
0.760401
0.76222
0.765801
0.769022
0.762348
0.758982
0.759487
0.762442
0.763659
0.76403
0.763807
0.763367
0.7629
0.762378
0.761799
0.761385
0.761164
0.761216
0.761487
0.761931
0.76139
0.760614
0.764523
0.768194
0.763269
0.759622
0.757194
0.756746
0.758565
0.760203
0.761751
0.76242
0.762555
0.762382
0.762086
0.761788
0.761584
0.761512
0.761648
0.762047
0.761955
0.76061
0.762335
0.767328
0.765439
0.762218
0.759093
0.756407
0.75521
0.755291
0.755927
0.757452
0.759239
0.76047
0.761411
0.761655
0.76163
0.761644
0.761773
0.76208
0.762198
0.761166
0.760728
0.766401
0.767032
0.764592
0.76228
0.759359
0.756352
0.755425
0.755645
0.756528
0.757382
0.758268
0.759157
0.760508
0.76129
0.761556
0.761849
0.762176
0.7624
0.761641
0.760155
0.765151
0.768172
0.766549
0.764888
0.762115
0.758086
0.755883
0.757047
0.75879
0.758934
0.758854
0.75906
0.759586
0.760698
0.761437
0.76205
0.762351
0.762617
0.762032
0.760328
0.763358
0.768232
0.766693
0.765926
0.764898
0.761157
0.756049
0.757089
0.759944
0.761154
0.760668
0.759663
0.759809
0.760715
0.761697
0.762195
0.762568
0.762857
0.762376
0.760696
0.75986
0.768123
0.766549
0.765894
0.76536
0.763911
0.758279
0.755473
0.759549
0.761567
0.761937
0.761338
0.760765
0.761481
0.762097
0.762492
0.762841
0.763109
0.762699
0.761115
0.75363
0.767969
0.766215
0.765636
0.765291
0.764263
0.761085
0.755197
0.757101
0.760917
0.762071
0.762333
0.762375
0.762317
0.762595
0.762847
0.763124
0.763339
0.763005
0.761552
0.743406
0.767597
0.76572
0.76513
0.764875
0.764012
0.761515
0.756296
0.754734
0.758694
0.761315
0.762279
0.762665
0.762787
0.762959
0.763132
0.763343
0.763504
0.763256
0.761936
0.724572
0.767273
0.765479
0.764768
0.764121
0.762651
0.760279
0.756703
0.753545
0.755163
0.758763
0.76113
0.7622
0.762689
0.762988
0.763203
0.763406
0.763547
0.763392
0.761853
0.621278
0.76711
0.765318
0.764491
0.763033
0.760328
0.757757
0.755111
0.752573
0.75229
0.755021
0.758443
0.760635
0.761739
0.762371
0.762782
0.763086
0.763281