/*--------------------------------*- C++ -*----------------------------------*\
| =========                 |                                                 |
| \\      /  F ield         | OpenFOAM: The Open Source CFD Toolbox           |
|  \\    /   O peration     | Version:  dev                                   |
|   \\  /    A nd           | Web:      www.OpenFOAM.org                      |
|    \\/     M anipulation  |                                                 |
\*---------------------------------------------------------------------------*/
FoamFile
{
    version     2.0;
    format      ascii;
    class       volScalarField;
    location    "100";
    object      O2;
}
// * * * * * * * * * * * * * * * * * * * * * * * * * * * * * * * * * * * * * //

dimensions      [0 0 0 0 0 0 0];

internalField   nonuniform List<scalar> 
4000
(
0.23
0.23
0.23
0.23
0.23
0.23
0.23
0.23
0.23
0.23
0.23
0.23
0.23
0.23
0.23
0.23
0.23
0.23
0.23
0.23
0.23
0.23
0.23
0.23
0.23
0.23
0.23
0.23
0.23
0.23
0.23
0.23
0.23
0.23
0.23
0.23
0.23
0.23
0.23
0.23
0.23
0.23
0.23
0.23
0.23
0.23
0.23
0.23
0.23
0.23
0.23
0.23
0.23
0.23
0.23
0.23
0.23
0.23
0.23
0.23
0.23
0.23
0.23
0.23
0.23
0.23
0.23
0.23
0.23
0.23
0.23
0.23
0.23
0.23
0.23
0.23
0.23
0.23
0.23
0.23
0.23
0.23
0.23
0.23
0.23
0.23
0.23
0.23
0.23
0.23
0.23
0.23
0.23
0.23
0.23
0.23
0.23
0.23
0.23
0.23
0.23
0.23
0.23
0.23
0.23
0.23
0.23
0.23
0.23
0.23
0.23
0.23
0.23
0.23
0.23
0.23
0.23
0.23
0.23
0.23
0.23
0.23
0.23
0.23
0.23
0.23
0.23
0.23
0.23
0.23
0.23
0.23
0.23
0.23
0.23
0.23
0.23
0.23
0.23
0.23
0.23
0.23
0.23
0.23
0.23
0.23
0.23
0.23
0.23
0.23
0.23
0.23
0.23
0.23
0.23
0.23
0.23
0.23
0.23
0.23
0.23
0.23
0.23
0.23
0.23
0.23
0.23
0.23
0.23
0.23
0.23
0.23
0.23
0.23
0.23
0.23
0.23
0.23
0.23
0.23
0.23
0.23
0.23
0.23
0.23
0.23
0.23
0.23
0.23
0.23
0.23
0.23
0.23
0.23
0.23
0.23
0.23
0.23
0.23
0.23
0.23
0.23
0.23
0.23
0.23
0.23
0.23
0.23
0.23
0.23
0.23
0.23
0.23
0.23
0.23
0.23
0.23
0.23
0.23
0.23
0.23
0.23
0.23
0.23
0.23
0.23
0.23
0.23
0.23
0.23
0.23
0.23
0.23
0.23
0.23
0.23
0.23
0.23
0.23
0.23
0.23
0.23
0.23
0.23
0.23
0.23
0.23
0.23
0.23
0.23
0.23
0.23
0.23
0.23
0.23
0.23
0.23
0.23
0.23
0.23
0.23
0.23
0.23
0.23
0.23
0.23
0.23
0.23
0.23
0.23
0.23
0.23
0.23
0.23
0.23
0.23
0.23
0.23
0.23
0.23
0.23
0.23
0.23
0.23
0.23
0.23
0.23
0.23
0.23
0.23
0.23
0.23
0.23
0.23
0.23
0.23
0.23
0.23
0.23
0.23
0.23
0.23
0.23
0.23
0.23
0.23
0.23
0.23
0.23
0.23
0.23
0.23
0.23
0.23
0.23
0.23
0.23
0.23
0.23
0.23
0.23
0.23
0.23
0.23
0.23
0.23
0.23
0.23
0.23
0.23
0.23
0.23
0.23
0.23
0.23
0.23
0.23
0.23
0.23
0.23
0.23
0.23
0.23
0.23
0.23
0.23
0.23
0.23
0.23
0.23
0.23
0.23
0.23
0.23
0.23
0.23
0.23
0.23
0.23
0.23
0.23
0.23
0.23
0.23
0.23
0.23
0.23
0.23
0.23
0.23
0.23
0.23
0.23
0.23
0.23
0.23
0.23
0.23
0.23
0.23
0.23
0.23
0.23
0.23
0.23
0.23
0.23
0.23
0.23
0.23
0.23
0.23
0.23
0.23
0.23
0.23
0.23
0.23
0.23
0.23
0.23
0.23
0.23
0.23
0.23
0.23
0.23
0.23
0.23
0.23
0.23
0.23
0.23
0.23
0.23
0.23
0.23
0.23
0.23
0.23
0.23
0.23
0.23
0.23
0.23
0.23
0.23
0.23
0.23
0.23
0.23
0.23
0.23
0.23
0.23
0.23
0.23
0.23
0.23
0.23
0.23
0.23
0.23
0.23
0.23
0.23
0.23
0.23
0.23
0.23
0.23
0.23
0.23
0.23
0.23
0.23
0.23
0.23
0.23
0.23
0.23
0.23
0.23
0.23
0.23
0.23
0.23
0.23
0.23
0.23
0.23
0.23
0.23
0.23
0.23
0.23
0.23
0.23
0.23
0.23
0.23
0.23
0.23
0.23
0.23
0.23
0.23
0.23
0.23
0.23
0.23
0.23
0.23
0.23
0.23
0.23
0.23
0.23
0.23
0.23
0.23
0.23
0.23
0.23
0.23
0.23
0.23
0.23
0.23
0.23
0.23
0.23
0.23
0.23
0.23
0.23
0.23
0.23
0.23
0.23
0.23
0.23
0.23
0.23
0.23
0.23
0.23
0.23
0.23
0.23
0.23
0.23
0.23
0.23
0.23
0.23
0.23
0.23
0.23
0.23
0.23
0.23
0.23
0.23
0.23
0.23
0.23
0.23
0.23
0.23
0.23
0.23
0.23
0.23
0.23
0.23
0.23
0.23
0.23
0.23
0.23
0.23
0.23
0.23
0.23
0.23
0.23
0.23
0.23
0.23
0.23
0.23
0.23
0.23
0.23
0.23
0.23
0.23
0.23
0.23
0.23
0.23
0.23
0.23
0.23
0.23
0.23
0.23
0.23
0.23
0.23
0.23
0.23
0.23
0.23
0.23
0.23
0.23
0.23
0.23
0.23
0.23
0.23
0.23
0.23
0.23
0.23
0.23
0.23
0.23
0.23
0.23
0.23
0.23
0.23
0.23
0.23
0.23
0.23
0.23
0.23
0.23
0.23
0.23
0.23
0.23
0.23
0.23
0.23
0.23
0.23
0.23
0.23
0.23
0.23
0.23
0.23
0.23
0.23
0.23
0.23
0.23
0.23
0.23
0.23
0.23
0.23
0.23
0.23
0.23
0.23
0.23
0.23
0.23
0.23
0.23
0.23
0.23
0.23
0.23
0.23
0.23
0.23
0.23
0.23
0.23
0.23
0.23
0.23
0.23
0.23
0.23
0.23
0.23
0.23
0.23
0.23
0.23
0.23
0.23
0.23
0.23
0.23
0.23
0.23
0.23
0.23
0.23
0.23
0.23
0.23
0.23
0.23
0.23
0.23
0.23
0.23
0.23
0.23
0.23
0.23
0.23
0.23
0.23
0.23
0.23
0.23
0.23
0.23
0.23
0.23
0.23
0.23
0.23
0.23
0.23
0.23
0.23
0.23
0.23
0.229999
0.23
0.23
0.23
0.23
0.23
0.23
0.23
0.23
0.23
0.23
0.23
0.23
0.23
0.23
0.23
0.23
0.23
0.23
0.23
0.229993
0.229997
0.229999
0.23
0.23
0.23
0.23
0.23
0.23
0.23
0.23
0.23
0.23
0.23
0.23
0.23
0.23
0.23
0.23
0.23
0.229933
0.229976
0.229995
0.229999
0.23
0.23
0.23
0.23
0.23
0.23
0.23
0.23
0.23
0.23
0.23
0.23
0.23
0.23
0.23
0.23
0.229213
0.229769
0.229961
0.229994
0.229999
0.23
0.23
0.23
0.23
0.23
0.23
0.23
0.23
0.23
0.23
0.23
0.23
0.23
0.23
0.23
0.219098
0.227257
0.229644
0.229959
0.229995
0.23
0.23
0.23
0.23
0.23
0.23
0.23
0.23
0.23
0.23
0.23
0.23
0.23
0.23
0.23
0.113008
0.201543
0.226804
0.229709
0.229974
0.229998
0.23
0.23
0.23
0.23
0.23
0.23
0.23
0.23
0.23
0.23
0.23
0.23
0.23
0.23
0.0119656
0.138062
0.21601
0.228734
0.229898
0.229992
0.229999
0.23
0.23
0.23
0.23
0.23
0.23
0.23
0.23
0.23
0.23
0.23
0.23
0.23
0.00220962
0.0398976
0.197579
0.226999
0.229763
0.22998
0.229998
0.23
0.23
0.23
0.23
0.23
0.23
0.23
0.23
0.23
0.23
0.23
0.23
0.23
0.000511937
0.0125657
0.180789
0.225023
0.229583
0.229965
0.229997
0.23
0.23
0.23
0.23
0.23
0.23
0.23
0.23
0.23
0.23
0.23
0.23
0.23
0.000264957
0.00903308
0.157206
0.22165
0.229295
0.229941
0.229995
0.23
0.23
0.23
0.23
0.23
0.23
0.23
0.23
0.23
0.23
0.23
0.23
0.23
0.000195093
0.00749626
0.136902
0.216768
0.228805
0.229899
0.229991
0.229999
0.23
0.23
0.23
0.23
0.23
0.23
0.23
0.23
0.23
0.23
0.23
0.23
0.000149713
0.00618645
0.117958
0.211709
0.228233
0.229843
0.229986
0.229999
0.23
0.23
0.23
0.23
0.23
0.23
0.23
0.23
0.23
0.23
0.23
0.23
0.000115872
0.00506645
0.0993814
0.205332
0.227359
0.229759
0.229978
0.229998
0.23
0.23
0.23
0.23
0.23
0.23
0.23
0.23
0.23
0.23
0.23
0.23
9.04604e-05
0.00412423
0.0825228
0.199492
0.226621
0.229677
0.229969
0.229997
0.23
0.23
0.23
0.23
0.23
0.23
0.23
0.23
0.23
0.23
0.23
0.23
6.86136e-05
0.00324082
0.0658359
0.191823
0.225311
0.22954
0.229957
0.229996
0.23
0.23
0.23
0.23
0.23
0.23
0.23
0.23
0.23
0.23
0.23
0.23
5.17347e-05
0.00250311
0.0506534
0.185538
0.224366
0.229431
0.229944
0.229995
0.23
0.23
0.23
0.23
0.23
0.23
0.23
0.23
0.23
0.23
0.23
0.23
3.68915e-05
0.00182229
0.0366343
0.177376
0.222616
0.229226
0.229924
0.229993
0.229999
0.23
0.23
0.23
0.23
0.23
0.23
0.23
0.23
0.23
0.23
0.23
2.26558e-05
0.00112264
0.021608
0.170009
0.221344
0.229078
0.229907
0.229991
0.229999
0.23
0.23
0.23
0.23
0.23
0.23
0.23
0.23
0.23
0.23
0.23
1.10217e-05
0.000552914
0.0105292
0.162
0.219286
0.228809
0.229878
0.229988
0.229999
0.23
0.23
0.23
0.23
0.23
0.23
0.23
0.23
0.23
0.23
0.23
7.12674e-06
0.000395464
0.00877733
0.155824
0.217598
0.228574
0.229852
0.229985
0.229999
0.23
0.23
0.23
0.23
0.23
0.23
0.23
0.23
0.23
0.23
0.23
5.81967e-06
0.000343834
0.0081847
0.149808
0.21567
0.228281
0.229819
0.229982
0.229998
0.23
0.23
0.23
0.23
0.23
0.23
0.23
0.23
0.23
0.23
0.23
5.13153e-06
0.00031134
0.00768669
0.144181
0.213628
0.227956
0.229783
0.229978
0.229998
0.23
0.23
0.23
0.23
0.23
0.23
0.23
0.23
0.23
0.23
0.23
4.56736e-06
0.00028196
0.00719384
0.138408
0.211438
0.227595
0.229742
0.229974
0.229998
0.23
0.23
0.23
0.23
0.23
0.23
0.23
0.23
0.23
0.23
0.23
4.03351e-06
0.000252714
0.00668044
0.132146
0.209073
0.227195
0.229697
0.22997
0.229997
0.23
0.23
0.23
0.23
0.23
0.23
0.23
0.23
0.23
0.23
0.23
3.51669e-06
0.000223452
0.00614839
0.125455
0.206467
0.226743
0.229647
0.229965
0.229997
0.23
0.23
0.23
0.23
0.23
0.23
0.23
0.23
0.23
0.23
0.23
3.02337e-06
0.000194788
0.00559888
0.118175
0.203501
0.226232
0.229594
0.229959
0.229996
0.23
0.23
0.23
0.23
0.23
0.23
0.23
0.23
0.23
0.23
0.23
2.5711e-06
0.00016785
0.00504083
0.110214
0.200262
0.225651
0.229535
0.229953
0.229996
0.23
0.23
0.23
0.23
0.23
0.23
0.23
0.23
0.23
0.23
0.23
2.16951e-06
0.000143586
0.0044998
0.101862
0.196476
0.224974
0.229474
0.229947
0.229995
0.23
0.23
0.23
0.23
0.23
0.23
0.23
0.23
0.23
0.23
0.23
1.82005e-06
0.000122036
0.00397879
0.0930225
0.192024
0.224272
0.229413
0.229941
0.229994
0.23
0.23
0.23
0.23
0.23
0.23
0.23
0.23
0.23
0.23
0.23
1.53098e-06
0.000103903
0.00348269
0.0834545
0.187298
0.223489
0.229347
0.229935
0.229994
0.229999
0.23
0.23
0.23
0.23
0.23
0.23
0.23
0.23
0.23
0.23
1.31463e-06
9.04219e-05
0.00307398
0.0745779
0.1824
0.222702
0.229282
0.229928
0.229993
0.229999
0.23
0.23
0.23
0.23
0.23
0.23
0.23
0.23
0.23
0.23
1.15955e-06
8.07295e-05
0.00274834
0.066444
0.176984
0.222136
0.229201
0.229922
0.229993
0.229999
0.23
0.23
0.23
0.23
0.23
0.23
0.23
0.23
0.23
0.23
1.09734e-06
7.6622e-05
0.00247617
0.0586559
0.171927
0.22185
0.229141
0.229916
0.229992
0.229999
0.23
0.23
0.23
0.23
0.23
0.23
0.23
0.23
0.23
0.23
1.1546e-06
7.90983e-05
0.00244777
0.0552169
0.16936
0.221828
0.229116
0.229911
0.229992
0.229999
0.23
0.23
0.23
0.23
0.23
0.23
0.23
0.23
0.23
0.23
1.32061e-06
8.76869e-05
0.00257162
0.0555581
0.169224
0.22197
0.229125
0.229907
0.229991
0.229999
0.23
0.23
0.23
0.23
0.23
0.23
0.23
0.23
0.23
0.23
1.61984e-06
0.000103545
0.00283368
0.0575836
0.170057
0.222456
0.229157
0.2299
0.22999
0.229999
0.23
0.23
0.23
0.23
0.23
0.23
0.23
0.23
0.23
0.23
2.20506e-06
0.000132824
0.00333346
0.0627708
0.172795
0.223329
0.229157
0.229887
0.229988
0.229999
0.23
0.23
0.23
0.23
0.23
0.23
0.23
0.23
0.23
0.23
3.13031e-06
0.00018037
0.00417046
0.0727234
0.178946
0.224258
0.229094
0.229861
0.229983
0.229998
0.23
0.23
0.23
0.23
0.23
0.23
0.23
0.23
0.23
0.23
4.06209e-06
0.000229525
0.00506812
0.0833525
0.18736
0.224958
0.228936
0.229818
0.229977
0.229998
0.23
0.23
0.23
0.23
0.23
0.23
0.23
0.23
0.23
0.23
5.75247e-06
0.000305264
0.00630361
0.0971679
0.196528
0.225182
0.228605
0.229743
0.229966
0.229996
0.23
0.23
0.23
0.23
0.23
0.23
0.23
0.23
0.23
0.23
7.30775e-06
0.000389533
0.00770234
0.112836
0.202657
0.224841
0.227968
0.229616
0.229947
0.229994
0.229999
0.23
0.23
0.23
0.23
0.23
0.23
0.23
0.23
0.23
6.40085e-06
0.000368867
0.00777198
0.118753
0.20386
0.223628
0.227015
0.229407
0.22992
0.229989
0.229999
0.23
0.23
0.23
0.23
0.23
0.23
0.23
0.23
0.23
4.48689e-06
0.000273574
0.00661805
0.116975
0.202432
0.220909
0.224916
0.228997
0.229876
0.229984
0.229998
0.23
0.23
0.23
0.23
0.23
0.23
0.23
0.23
0.23
2.48874e-06
0.000152879
0.00459032
0.106447
0.195559
0.214926
0.221297
0.228314
0.229796
0.229973
0.229997
0.23
0.23
0.23
0.23
0.23
0.23
0.23
0.23
0.23
1.52303e-06
9.74002e-05
0.00331397
0.0896702
0.181819
0.205917
0.2157
0.227252
0.229668
0.229959
0.229996
0.23
0.23
0.23
0.23
0.23
0.23
0.23
0.23
0.23
6.95919e-07
4.60354e-05
0.00161887
0.0392761
0.14758
0.19203
0.208183
0.225773
0.229471
0.229939
0.229994
0.23
0.23
0.23
0.23
0.23
0.23
0.23
0.23
0.23
2.27317e-07
1.53109e-05
0.00050834
0.0109678
0.118488
0.179729
0.20012
0.22423
0.229228
0.22991
0.229992
0.23
0.23
0.23
0.23
0.23
0.23
0.23
0.23
0.23
6.58395e-08
4.77221e-06
0.000168672
0.00414372
0.0716175
0.150316
0.19039
0.223329
0.229062
0.22988
0.229991
0.229999
0.23
0.23
0.23
0.23
0.23
0.23
0.23
0.23
2.00466e-08
1.60397e-06
6.27976e-05
0.00174282
0.0288676
0.104763
0.186834
0.223497
0.229022
0.229863
0.229989
0.229999
0.23
0.23
0.23
0.23
0.23
0.23
0.23
0.23
5.49341e-09
4.57119e-07
1.86268e-05
0.000450242
0.00713135
0.0857465
0.190547
0.224429
0.229063
0.22986
0.229989
0.229999
0.23
0.23
0.23
0.23
0.23
0.23
0.23
0.23
1.92993e-08
1.79637e-07
5.79777e-06
0.000148847
0.00352408
0.0858401
0.198354
0.225594
0.229139
0.229865
0.22999
0.229999
0.23
0.23
0.23
0.23
0.23
0.23
0.23
0.23
5.69747e-06
2.97224e-07
3.48657e-06
0.000102553
0.00287434
0.0905761
0.206807
0.22655
0.229208
0.229878
0.229991
0.229999
0.23
0.23
0.23
0.23
0.23
0.23
0.23
0.23
0.00187724
2.49741e-05
4.1359e-06
0.000125391
0.00355135
0.0992694
0.213058
0.22719
0.229274
0.229896
0.229991
0.229999
0.23
0.23
0.23
0.23
0.23
0.23
0.23
0.23
0.00248053
4.21011e-05
9.90356e-06
0.000287154
0.00646201
0.112707
0.21791
0.2276
0.22934
0.229911
0.229991
0.229999
0.23
0.23
0.23
0.23
0.23
0.23
0.23
0.23
0.00280755
5.40697e-05
3.93817e-05
0.00102521
0.0218636
0.13601
0.221583
0.227892
0.229424
0.229916
0.229989
0.229998
0.229999
0.23
0.23
0.23
0.23
0.23
0.23
0.23
0.00307208
6.47321e-05
9.60802e-05
0.00223958
0.0453964
0.164424
0.2241
0.228108
0.2295
0.229916
0.229984
0.229995
0.229998
0.229999
0.23
0.23
0.23
0.23
0.23
0.23
0.00330996
7.62963e-05
0.000190423
0.00398946
0.0714944
0.188879
0.225612
0.228314
0.229547
0.229908
0.229969
0.229986
0.229994
0.229998
0.229999
0.23
0.23
0.23
0.23
0.23
0.00354014
9.429e-05
0.000383972
0.0067344
0.101745
0.205251
0.226298
0.228497
0.22956
0.229878
0.229937
0.229964
0.229982
0.229993
0.229998
0.23
0.23
0.23
0.23
0.23
0.00374406
0.000122051
0.000713421
0.0107561
0.129847
0.214615
0.226654
0.228611
0.229542
0.229801
0.229864
0.229911
0.22995
0.229978
0.229993
0.229998
0.23
0.23
0.23
0.23
0.00391526
0.000185983
0.00168109
0.0251253
0.155302
0.219653
0.226889
0.22863
0.229445
0.229634
0.229708
0.22979
0.229872
0.229937
0.229977
0.229994
0.229999
0.23
0.23
0.23
0.00407776
0.000336711
0.00415568
0.0593508
0.17565
0.22223
0.226964
0.228551
0.229169
0.229278
0.229376
0.229534
0.229696
0.229839
0.229934
0.229981
0.229996
0.229999
0.23
0.23
0.00422398
0.000498737
0.0064103
0.0859453
0.190448
0.223488
0.226915
0.228241
0.228577
0.228627
0.22876
0.229008
0.229309
0.22961
0.229831
0.229949
0.229989
0.229998
0.23
0.23
0.00435313
0.00069991
0.00877343
0.109174
0.201216
0.223889
0.226611
0.227396
0.227431
0.22741
0.227584
0.228028
0.228593
0.229168
0.229618
0.229886
0.229975
0.229995
0.229999
0.23
0.0044924
0.000953779
0.011843
0.131459
0.208581
0.22385
0.225821
0.226145
0.225934
0.225674
0.225733
0.226413
0.227351
0.228374
0.22923
0.229793
0.229945
0.229987
0.229998
0.23
0.00464102
0.00123878
0.0155306
0.147724
0.212795
0.223518
0.224212
0.224035
0.223598
0.223058
0.223099
0.224162
0.225719
0.227248
0.228588
0.229632
0.229892
0.22997
0.229995
0.229999
0.00478832
0.00183604
0.025751
0.158943
0.214364
0.222511
0.222172
0.22162
0.22011
0.219106
0.219789
0.221219
0.222983
0.225198
0.227391
0.229368
0.229786
0.229937
0.229989
0.229999
0.00494503
0.0030861
0.0461465
0.168394
0.214506
0.220332
0.219617
0.218299
0.216156
0.215321
0.215178
0.215869
0.218451
0.221992
0.22543
0.228872
0.229588
0.229876
0.229978
0.229997
0.00508394
0.00409983
0.0614558
0.175668
0.214261
0.21806
0.217056
0.214768
0.213057
0.210042
0.207118
0.207979
0.21183
0.217204
0.222351
0.227908
0.229226
0.229767
0.229956
0.229994
0.00520249
0.00493245
0.0743529
0.179469
0.213261
0.215532
0.213918
0.212266
0.207997
0.201786
0.197434
0.197712
0.202736
0.210216
0.217654
0.22622
0.228636
0.229588
0.229919
0.229987
0.0052856
0.00527287
0.0821186
0.180132
0.21086
0.213388
0.2119
0.208329
0.201526
0.193155
0.186492
0.185711
0.190566
0.200386
0.211152
0.22317
0.227719
0.229307
0.229858
0.229976
0.00535201
0.00506685
0.0822185
0.178888
0.209264
0.211554
0.208543
0.204034
0.197005
0.187194
0.177755
0.172734
0.175306
0.186956
0.202731
0.21826
0.226283
0.228881
0.229761
0.229956
0.00534913
0.00412463
0.078261
0.176098
0.206907
0.207871
0.204454
0.200809
0.194726
0.184069
0.170995
0.16049
0.158688
0.16987
0.190546
0.211732
0.224158
0.228267
0.229615
0.229923
0.00534287
0.00332408
0.0731334
0.169504
0.201818
0.203533
0.200826
0.19813
0.19333
0.182859
0.16766
0.152126
0.14359
0.150688
0.174405
0.202777
0.221115
0.227405
0.229407
0.229872
0.00532913
0.00281496
0.0624467
0.157188
0.195115
0.19893
0.196801
0.194636
0.191948
0.183739
0.168763
0.149848
0.132735
0.131944
0.155078
0.19082
0.216998
0.226265
0.229127
0.229793
0.00529937
0.00185604
0.0291414
0.130603
0.183342
0.191925
0.191066
0.189217
0.189309
0.185448
0.173246
0.153584
0.128092
0.116038
0.13412
0.175596
0.211659
0.224843
0.22878
0.229684
0.00535872
0.000957053
0.0110584
0.102267
0.160686
0.178752
0.182285
0.180877
0.183464
0.185664
0.17831
0.161138
0.129583
0.104571
0.113862
0.157517
0.204941
0.223096
0.228361
0.229542
0.00539451
0.000674366
0.00318621
0.0418737
0.11467
0.154145
0.167518
0.168702
0.172703
0.182266
0.181547
0.169091
0.135715
0.0978708
0.0962355
0.137518
0.197007
0.221053
0.227866
0.229359
0.00536584
0.000498173
0.00130378
0.0120419
0.0632929
0.115006
0.143046
0.150968
0.156659
0.173625
0.181646
0.174507
0.144089
0.0957034
0.0823713
0.116869
0.188276
0.218896
0.22735
0.229141
0.00518457
0.000479016
0.00047027
0.00281282
0.0169432
0.064539
0.107441
0.125938
0.135099
0.1591
0.177685
0.175757
0.151532
0.097161
0.072919
0.0987066
0.179084
0.216656
0.226818
0.228904
0.0051241
0.000404843
0.000141066
0.000871215
0.00430205
0.0213029
0.062985
0.0939238
0.108077
0.139402
0.170352
0.174104
0.155561
0.100613
0.0672621
0.0849167
0.171164
0.214751
0.22634
0.228659
0.00508217
0.000346968
4.59708e-05
0.000211508
0.00116396
0.00515193
0.022989
0.0568865
0.0772199
0.117082
0.160582
0.169555
0.155633
0.103178
0.0635366
0.0763357
0.165551
0.213462
0.226036
0.228469
0.00507235
0.000300063
2.30408e-05
3.76569e-05
0.000277984
0.0013299
0.00549736
0.0223356
0.0462172
0.0914927
0.145799
0.16066
0.150415
0.102575
0.0593566
0.0711916
0.162989
0.212987
0.225942
0.228358
0.00510056
0.000270628
1.50066e-05
6.95492e-06
4.44954e-05
0.000346598
0.00140427
0.00522571
0.0207337
0.0598137
0.126409
0.1475
0.139807
0.0964209
0.0536815
0.0679453
0.164932
0.213663
0.226109
0.228338
0.00537937
0.000265718
1.53427e-05
2.01997e-06
7.00032e-06
5.48638e-05
0.000373596
0.00137184
0.00501511
0.0373271
0.107107
0.131089
0.1241
0.0841348
0.0465949
0.0672558
0.171446
0.215465
0.226533
0.22842
0.0213788
0.000875984
4.1883e-05
2.67787e-06
1.27767e-06
8.52547e-06
6.22841e-05
0.000361847
0.00121123
0.0133879
0.0685558
0.103987
0.10014
0.0663415
0.0388823
0.071949
0.181517
0.217983
0.227103
0.22856
0.0376238
0.00147157
6.44539e-05
3.59581e-06
4.10888e-07
1.32055e-06
9.57257e-06
6.76566e-05
0.000373335
0.00339962
0.0438453
0.0769358
0.0735144
0.0453154
0.0317492
0.0878426
0.192749
0.220711
0.227707
0.228723
0.0400364
0.00147892
6.17691e-05
2.60108e-06
2.09642e-07
2.15224e-07
1.45329e-06
1.07304e-05
8.8061e-05
0.00100994
0.0124972
0.0429284
0.0433794
0.025099
0.0259557
0.116943
0.203061
0.223161
0.228225
0.228872
0.036386
0.00129707
5.23538e-05
1.98161e-06
1.25255e-07
3.93885e-08
2.18712e-07
1.72816e-06
1.73149e-05
0.000282862
0.00260014
0.0146886
0.0159151
0.00859581
0.0275414
0.152571
0.21203
0.225119
0.228623
0.228997
0.0274831
0.000967018
3.74484e-05
1.47649e-06
8.69488e-08
1.03481e-08
3.30032e-08
2.81341e-07
3.23431e-06
5.45952e-05
0.000572192
0.00238292
0.00218424
0.00139528
0.0514994
0.182112
0.218263
0.226477
0.228897
0.229105
0.0137438
0.000500628
2.06911e-05
7.59951e-07
3.28136e-08
3.058e-09
5.09292e-09
4.60463e-08
5.71965e-07
8.82951e-06
0.000107253
0.000427085
0.00035286
0.00333899
0.101176
0.201073
0.222338
0.227355
0.229078
0.229208
0.00548107
0.000232288
1.0408e-05
4.12831e-07
1.68643e-08
1.10463e-09
8.18586e-10
7.61409e-09
9.84654e-08
1.3916e-06
1.55048e-05
6.90202e-05
0.00032269
0.0214364
0.159295
0.213737
0.224775
0.227874
0.229201
0.229313
0.00519212
0.000203726
7.56274e-06
2.49957e-07
8.41732e-09
3.82674e-10
1.23568e-10
1.26067e-09
1.66401e-08
2.11659e-07
2.0883e-06
2.26959e-05
0.00105365
0.0762842
0.195466
0.219641
0.225922
0.22818
0.229297
0.22941
0.0051613
0.00018721
5.94277e-06
1.67584e-07
4.57638e-09
1.50975e-10
3.07805e-11
2.28925e-10
3.4895e-09
7.64401e-08
2.8786e-06
0.00015981
0.00845049
0.154892
0.209306
0.221927
0.226462
0.228393
0.229378
0.229492
0.00512573
0.00018312
5.59232e-06
1.48665e-07
3.50821e-09
8.96554e-11
2.60102e-11
3.48044e-10
7.34154e-09
2.42068e-07
1.31968e-05
0.00094993
0.0816476
0.188718
0.213811
0.222827
0.226831
0.228584
0.229454
0.229568
0.00510761
0.000181157
5.42084e-06
1.39922e-07
3.31905e-09
1.01491e-10
4.29883e-10
8.06034e-09
1.74691e-07
4.30963e-06
0.000119147
0.00328844
0.145393
0.196352
0.214666
0.22328
0.227131
0.22875
0.229522
0.229635
0.00511605
0.000181707
5.41648e-06
1.38985e-07
3.30672e-09
2.92232e-10
4.42194e-09
1.02148e-07
2.80867e-06
8.1648e-05
0.00167132
0.0412895
0.159002
0.19605
0.214978
0.223834
0.227473
0.228919
0.229587
0.22969
0.00516201
0.000185725
5.59584e-06
1.49377e-07
3.62042e-09
1.08306e-09
1.5794e-08
2.73544e-07
5.5802e-06
0.000136262
0.00275686
0.0853127
0.156004
0.195136
0.216236
0.224755
0.227883
0.229081
0.229643
0.229732
0.00565967
0.000228087
7.33998e-06
2.02477e-07
5.0201e-09
2.35997e-09
4.15785e-08
8.10989e-07
1.80102e-05
0.000312142
0.00702311
0.0838098
0.148697
0.197124
0.218383
0.225676
0.228218
0.2292
0.229679
0.229761
0.0189731
0.000681558
2.02176e-05
5.02811e-07
1.14362e-08
1.89549e-09
3.11988e-08
6.10799e-07
1.36251e-05
0.000281344
0.013471
0.067195
0.150476
0.202297
0.220672
0.226517
0.2285
0.229294
0.229707
0.229787
0.0384812
0.00133376
4.1866e-05
1.1352e-06
2.75547e-08
1.23344e-09
1.16831e-08
2.40751e-07
6.49809e-06
0.000260925
0.0131932
0.0677828
0.166938
0.210396
0.223419
0.227348
0.228742
0.229372
0.229732
0.229814
0.0494865
0.00175537
5.70039e-05
1.62719e-06
4.19314e-08
1.21928e-09
5.18712e-09
1.6236e-07
6.43564e-06
0.000299382
0.0160464
0.0955645
0.189045
0.217568
0.225471
0.227925
0.228915
0.229438
0.229757
0.229843
0.0544246
0.00194473
6.44596e-05
1.8945e-06
5.03768e-08
1.48586e-09
1.00227e-08
3.94919e-07
1.74736e-05
0.000730532
0.0338355
0.15479
0.208544
0.222698
0.226803
0.228291
0.229042
0.229497
0.229783
0.229875
0.0566999
0.00202032
6.77148e-05
2.02382e-06
5.49578e-08
3.268e-09
7.57553e-08
3.29412e-06
0.000155602
0.00794624
0.100183
0.192553
0.218061
0.225156
0.227466
0.228502
0.229134
0.229553
0.229815
0.22991
0.0578133
0.00206492
6.9581e-05
2.10176e-06
5.83788e-08
1.84361e-08
6.02931e-07
2.44047e-05
0.00110787
0.0462617
0.165986
0.210477
0.222648
0.226367
0.227812
0.228644
0.229224
0.22962
0.229854
0.22994
0.0587356
0.00210366
7.10917e-05
2.1569e-06
6.74585e-08
2.13368e-07
7.21956e-06
0.000270601
0.0129614
0.124766
0.197602
0.218715
0.22485
0.226978
0.228046
0.228777
0.229317
0.229688
0.229892
0.229963
0.0609323
0.00218349
7.38343e-05
2.24746e-06
1.26435e-07
1.68965e-06
5.04227e-05
0.00163298
0.0652768
0.174846
0.211916
0.222574
0.225918
0.227333
0.228208
0.228891
0.229427
0.229771
0.229931
0.229981
0.0674289
0.00239507
8.10113e-05
2.49853e-06
6.6007e-07
1.70979e-05
0.000445718
0.014644
0.130309
0.199135
0.21867
0.224451
0.226478
0.227536
0.22834
0.229055
0.229578
0.229858
0.229964
0.229992
0.0755703
0.00275963
9.53084e-05
3.11725e-06
2.76005e-06
7.36628e-05
0.00202271
0.0639135
0.172754
0.211405
0.222125
0.225441
0.226774
0.227715
0.228589
0.229303
0.229734
0.229923
0.229983
0.229996
0.0838599
0.00668594
0.000215103
7.03139e-06
1.75516e-05
0.000467322
0.0130027
0.122302
0.196504
0.217974
0.223976
0.225929
0.226986
0.228023
0.22893
0.229542
0.229847
0.229959
0.229991
0.229998
0.0916823
0.017368
0.000591583
1.97325e-05
7.03806e-05
0.00172602
0.0506914
0.166149
0.209914
0.221626
0.224904
0.226215
0.227377
0.228476
0.229269
0.229713
0.229905
0.229976
0.229996
0.229999
0.0986934
0.0272342
0.000895038
5.89768e-05
0.00057736
0.0139341
0.111732
0.194015
0.217421
0.223504
0.225358
0.226672
0.227937
0.228908
0.229488
0.229795
0.22994
0.229988
0.229998
0.23
0.106503
0.0344877
0.00136437
0.000339377
0.0056747
0.0530434
0.163509
0.209562
0.221298
0.224359
0.22589
0.227307
0.228427
0.229148
0.229612
0.22987
0.229967
0.229994
0.229999
0.23
0.115774
0.0424125
0.0065204
0.00449606
0.0270393
0.115513
0.194624
0.217449
0.223083
0.225026
0.226581
0.227825
0.228709
0.229374
0.229762
0.229924
0.229981
0.229996
0.23
0.23
0.126884
0.0561455
0.0220396
0.0247823
0.0739276
0.166592
0.210342
0.221143
0.224091
0.225767
0.227116
0.228172
0.229081
0.2296
0.229841
0.229946
0.229986
0.229997
0.23
0.23
0.13897
0.0749638
0.0518197
0.0677425
0.12819
0.19639
0.217748
0.22292
0.224909
0.226334
0.227543
0.228665
0.229357
0.229698
0.229869
0.229953
0.229988
0.229998
0.23
0.23
0.150468
0.0946435
0.0814428
0.105638
0.171041
0.21093
0.221159
0.223962
0.225565
0.226753
0.228155
0.228957
0.22946
0.229723
0.229874
0.229956
0.22999
0.229999
0.23
0.23
0.160612
0.113365
0.108782
0.141902
0.196111
0.21774
0.222821
0.224701
0.22604
0.227394
0.228436
0.229102
0.229484
0.229727
0.229879
0.22996
0.229991
0.229999
0.23
0.23
0.16948
0.130911
0.133012
0.173255
0.209447
0.220965
0.22375
0.225158
0.226543
0.227886
0.22863
0.229157
0.229498
0.229737
0.229888
0.229965
0.229993
0.229999
0.23
0.23
0.177151
0.147122
0.153558
0.19474
0.21655
0.222562
0.224263
0.225598
0.227166
0.228094
0.22873
0.229177
0.229512
0.229749
0.229895
0.229968
0.229994
0.23
0.23
0.23
0.183672
0.160902
0.170482
0.207147
0.220126
0.223333
0.224634
0.226203
0.227457
0.228184
0.228751
0.229178
0.229513
0.229752
0.2299
0.229972
0.229996
0.23
0.23
0.23
0.189532
0.172797
0.185599
0.214174
0.221897
0.223661
0.225159
0.226617
0.227531
0.228213
0.228729
0.229165
0.229514
0.229759
0.229908
0.229976
0.229997
0.23
0.23
0.23
0.194788
0.18418
0.198562
0.218381
0.222654
0.224065
0.225639
0.22674
0.227565
0.228181
0.228715
0.229173
0.229527
0.229774
0.229917
0.22998
0.229998
0.23
0.23
0.23
0.198878
0.194387
0.207752
0.220626
0.222982
0.224578
0.22583
0.226799
0.227553
0.228165
0.228723
0.22919
0.229546
0.229787
0.229923
0.229981
0.229998
0.23
0.23
0.23
0.201745
0.201222
0.213081
0.221581
0.223417
0.224821
0.225903
0.2268
0.227495
0.228143
0.228723
0.229195
0.229552
0.22979
0.229924
0.229982
0.229998
0.23
0.23
0.23
0.204155
0.204886
0.216143
0.221876
0.223704
0.224896
0.225916
0.226725
0.227425
0.228093
0.228686
0.229168
0.229531
0.229775
0.229916
0.229979
0.229998
0.23
0.23
0.23
0.206695
0.207873
0.218355
0.222142
0.223781
0.224909
0.225846
0.226585
0.227331
0.228017
0.228619
0.229116
0.229495
0.229755
0.229908
0.229977
0.229997
0.23
0.23
0.23
0.209072
0.21122
0.219803
0.222502
0.223813
0.224846
0.225622
0.226394
0.227163
0.227876
0.228506
0.22903
0.229437
0.229722
0.229893
0.229972
0.229997
0.23
0.23
0.23
0.210791
0.21421
0.220233
0.222737
0.223797
0.224631
0.225419
0.226243
0.227039
0.227771
0.228417
0.228961
0.229387
0.229691
0.229877
0.229966
0.229995
0.23
0.23
0.23
0.21164
0.216206
0.220608
0.222767
0.223679
0.224407
0.225245
0.226085
0.226892
0.227644
0.228321
0.228899
0.229351
0.229672
0.229867
0.229961
0.229993
0.23
0.23
0.23
0.211962
0.21715
0.220861
0.222674
0.223409
0.224216
0.225066
0.225896
0.226708
0.227491
0.228207
0.228815
0.229294
0.229638
0.22985
0.229955
0.229992
0.23
0.23
0.23
0.212315
0.217473
0.220844
0.222387
0.223168
0.224027
0.224887
0.225734
0.226567
0.227365
0.228093
0.228723
0.22923
0.2296
0.229829
0.229946
0.22999
0.229999
0.23
0.23
0.213084
0.217642
0.22082
0.222131
0.222984
0.223876
0.224733
0.225571
0.226395
0.227196
0.227957
0.228636
0.229183
0.22957
0.229808
0.229934
0.229987
0.229999
0.23
0.23
0.214262
0.218003
0.22083
0.221994
0.222824
0.223702
0.224513
0.225317
0.22615
0.227009
0.227843
0.228578
0.22915
0.229541
0.229782
0.229919
0.229984
0.229999
0.23
0.23
0.215373
0.218391
0.220794
0.221828
0.222598
0.223418
0.224203
0.225013
0.225893
0.226824
0.227718
0.228487
0.229078
0.22948
0.229736
0.229895
0.22998
0.229999
0.23
0.23
0.215666
0.218427
0.220634
0.221625
0.222359
0.223069
0.223766
0.224583
0.225513
0.226496
0.22745
0.228285
0.228937
0.229391
0.229679
0.229864
0.229973
0.229998
0.23
0.23
0.215886
0.218495
0.220524
0.221474
0.222122
0.222682
0.22322
0.223976
0.2249
0.225917
0.226946
0.227909
0.228706
0.229271
0.229614
0.22982
0.229963
0.229997
0.23
0.23
0.216239
0.21858
0.220392
0.221197
0.221632
0.221978
0.22242
0.223011
0.223812
0.224849
0.226046
0.227261
0.228319
0.229085
0.229528
0.229753
0.229947
0.229994
0.23
0.23
0.216665
0.218523
0.220045
0.220521
0.22071
0.220896
0.221146
0.221449
0.222068
0.223125
0.224554
0.226153
0.227642
0.228775
0.229419
0.229668
0.229903
0.229987
0.229999
0.23
0.2168
0.218426
0.21979
0.220038
0.21994
0.219629
0.219051
0.218808
0.219222
0.220342
0.222071
0.22419
0.226353
0.228158
0.229304
0.229578
0.229805
0.229969
0.229999
0.23
0.216863
0.218272
0.219409
0.219423
0.218832
0.217504
0.215482
0.214542
0.214803
0.216134
0.218258
0.221022
0.224093
0.226943
0.229094
0.229499
0.22966
0.229932
0.229997
0.23
0.216835
0.217694
0.218177
0.217262
0.21564
0.212912
0.210494
0.209174
0.209254
0.210728
0.213239
0.216382
0.220297
0.224634
0.228618
0.22931
0.229515
0.229837
0.22999
0.23
0.216749
0.217324
0.217695
0.216254
0.21302
0.209206
0.206454
0.205084
0.204812
0.205591
0.207625
0.211039
0.215498
0.220546
0.227313
0.228866
0.229406
0.229645
0.229972
0.23
0.216533
0.216935
0.217073
0.215857
0.212616
0.208458
0.205383
0.203654
0.202853
0.203002
0.204212
0.206524
0.209663
0.213939
0.224175
0.227933
0.22909
0.229436
0.229932
0.23
0.21605
0.216215
0.216468
0.215733
0.212934
0.208469
0.20509
0.202747
0.201307
0.200668
0.200999
0.202291
0.204685
0.208824
0.215344
0.225687
0.228514
0.229151
0.229835
0.229998
0.213196
0.214446
0.215164
0.214966
0.21353
0.209673
0.205663
0.202562
0.200558
0.199144
0.198545
0.19883
0.200162
0.203015
0.20732
0.219182
0.227068
0.228841
0.229572
0.229988
0.196044
0.210441
0.212573
0.213475
0.213095
0.211428
0.207821
0.203963
0.200832
0.198947
0.1975
0.196683
0.196772
0.198181
0.201642
0.207988
0.222487
0.228047
0.229143
0.229966
0.174014
0.197399
0.207546
0.209945
0.211048
0.210694
0.209498
0.206771
0.203258
0.200225
0.197903
0.19656
0.195412
0.195139
0.1963
0.200721
0.211715
0.225619
0.228459
0.229873
0.167831
0.160644
0.191712
0.202218
0.20618
0.207593
0.207627
0.206792
0.205071
0.202647
0.2
0.197572
0.195903
0.194762
0.194071
0.194752
0.200706
0.219186
0.227448
0.229505
0.168438
0.141637
0.148087
0.176685
0.191252
0.199838
0.202063
0.202728
0.202563
0.201819
0.200229
0.198736
0.196439
0.195352
0.194452
0.1933
0.19425
0.206104
0.225106
0.228865
0.175965
0.146659
0.127267
0.125366
0.143385
0.160378
0.178169
0.188382
0.194072
0.196014
0.196529
0.196528
0.19588
0.195042
0.194604
0.193488
0.19286
0.196334
0.217319
0.227976
0.194074
0.168606
0.143328
0.121538
0.112172
0.113614
0.120118
0.135576
0.15575
0.170907
0.184999