/*--------------------------------*- C++ -*----------------------------------*\
| =========                 |                                                 |
| \\      /  F ield         | OpenFOAM: The Open Source CFD Toolbox           |
|  \\    /   O peration     | Version:  dev                                   |
|   \\  /    A nd           | Web:      www.OpenFOAM.org                      |
|    \\/     M anipulation  |                                                 |
\*---------------------------------------------------------------------------*/
FoamFile
{
    version     2.0;
    format      ascii;
    class       volScalarField;
    location    "100";
    object      p_rgh;
}
// * * * * * * * * * * * * * * * * * * * * * * * * * * * * * * * * * * * * * //

dimensions      [1 -1 -2 0 0 0 0];

internalField   nonuniform List<scalar> 
4000
(
0.0186307
0.0185313
0.0184474
0.0183082
0.0181237
0.0178743
0.0175517
0.0171442
0.0166401
0.0160271
0.0152913
0.014422
0.0133991
0.0122226
0.0108561
0.00935101
0.00759729
0.0057027
0.00354321
0.00130951
0.0185781
0.0185298
0.0184523
0.01832
0.0181364
0.0178874
0.0175647
0.0171569
0.0166524
0.0160389
0.0153027
0.0144326
0.0134095
0.0122311
0.0108611
0.00936041
0.00760486
0.00570521
0.00354695
0.00130883
0.0185938
0.018551
0.0184747
0.0183451
0.0181621
0.0179136
0.0175907
0.0171824
0.0166772
0.0160629
0.0153258
0.014454
0.0134307
0.0122499
0.0108855
0.00936691
0.007616
0.00571308
0.00355512
0.00131012
0.0186206
0.0185855
0.0185103
0.0183834
0.0182011
0.0179529
0.0176298
0.017221
0.0167149
0.0160993
0.0153607
0.014487
0.0134621
0.0122787
0.0109143
0.00938435
0.00763484
0.00572552
0.00356587
0.00131182
0.0186694
0.018636
0.0185613
0.0184359
0.0182539
0.018006
0.0176825
0.0172729
0.0167656
0.0161483
0.0154077
0.0145315
0.0135038
0.0123171
0.0109498
0.00941156
0.00765895
0.00574198
0.0035818
0.00131372
0.0187344
0.018702
0.0186276
0.018503
0.0183212
0.018073
0.017749
0.0173383
0.0168294
0.0162101
0.0154669
0.0145876
0.0135562
0.0123653
0.0109923
0.00944766
0.0076889
0.00576349
0.00360122
0.00131593
0.0188151
0.0187834
0.0187092
0.0185849
0.018403
0.0181545
0.0178295
0.0174174
0.0169066
0.0162847
0.0155384
0.0146552
0.0136195
0.012423
0.011044
0.00949179
0.00772433
0.0057897
0.00362076
0.00132155
0.0189113
0.0188801
0.0188061
0.018682
0.0184998
0.0182505
0.0179243
0.0175105
0.0169973
0.0163724
0.0156224
0.0147345
0.0136937
0.0124904
0.0111046
0.00954302
0.00776624
0.00582153
0.00364009
0.00132622
0.0190228
0.0189922
0.0189185
0.0187943
0.0186116
0.0183614
0.0180337
0.0176177
0.0171018
0.0164733
0.015719
0.0148258
0.0137789
0.0125678
0.0111741
0.00960143
0.00781464
0.00585676
0.0036611
0.00132939
0.0191498
0.0191198
0.0190464
0.0189221
0.0187388
0.0184874
0.0181579
0.0177394
0.0172202
0.0165877
0.0158284
0.0149291
0.0138751
0.0126553
0.0112524
0.00966711
0.00786921
0.00589521
0.00368485
0.00133316
0.0192925
0.0192632
0.0191901
0.0190656
0.0188815
0.0186287
0.0182971
0.0178758
0.0173529
0.0167157
0.0159507
0.0150445
0.0139824
0.0127528
0.0113394
0.00974013
0.0079296
0.00593702
0.00371128
0.00133733
0.0194511
0.0194225
0.0193498
0.0192251
0.0190401
0.0187856
0.0184516
0.0180271
0.0175
0.0168575
0.0160861
0.0151722
0.014101
0.0128605
0.011435
0.00982051
0.00799545
0.00598244
0.00374003
0.00134174
0.0196259
0.0195981
0.0195257
0.0194007
0.0192147
0.0189584
0.0186217
0.0181935
0.0176617
0.0170134
0.0162349
0.0153122
0.0142309
0.0129783
0.0115392
0.00990819
0.00806658
0.0060317
0.00377077
0.00134653
0.0198171
0.0197902
0.0197181
0.0195928
0.0194056
0.0191472
0.0188075
0.0183753
0.0178383
0.0171834
0.016397
0.0154647
0.0143721
0.0131062
0.0116519
0.0100031
0.00814294
0.00608495
0.00380339
0.00135183
0.0200252
0.0199991
0.0199273
0.0198015
0.0196131
0.0193525
0.0190094
0.0185727
0.0180299
0.0173679
0.0165726
0.0156298
0.0145247
0.0132441
0.0117733
0.0101052
0.00822462
0.00614223
0.00383801
0.00135779
0.0202504
0.0202252
0.0201536
0.0200274
0.0198374
0.0195743
0.0192276
0.0187859
0.0182368
0.0175668
0.0167619
0.0158074
0.0146887
0.0133921
0.0119034
0.0102145
0.0083118
0.00620365
0.00387479
0.00136445
0.0204931
0.0204687
0.0203974
0.0202705
0.020079
0.0198131
0.0194624
0.0190153
0.0184591
0.0177805
0.0169649
0.0159978
0.0148642
0.0135503
0.0120421
0.010331
0.00840469
0.00626937
0.00391389
0.00137187
0.0207534
0.0207299
0.0206588
0.0205313
0.020338
0.0200691
0.019714
0.0192609
0.0186971
0.0180089
0.0171818
0.0162009
0.0150512
0.0137187
0.0121897
0.0104549
0.00850349
0.00633952
0.00395546
0.00138003
0.0210319
0.0210093
0.0209384
0.02081
0.0206147
0.0203425
0.0199826
0.019523
0.0189509
0.0182523
0.0174126
0.0164168
0.0152498
0.0138974
0.0123462
0.0105865
0.00860838
0.00641438
0.00399948
0.00138897
0.0213289
0.0213071
0.0212363
0.021107
0.0209096
0.0206337
0.0202685
0.0198018
0.0192206
0.0185108
0.0176575
0.0166456
0.0154601
0.0140866
0.0125119
0.0107259
0.00871945
0.00649396
0.00404615
0.00139864
0.0216446
0.0216237
0.021553
0.0214226
0.0212228
0.020943
0.020572
0.0200976
0.0195065
0.0187844
0.0179165
0.0168875
0.0156823
0.0142865
0.0126869
0.0108733
0.00883699
0.00657838
0.00409556
0.00140898
0.0219795
0.0219594
0.0218887
0.0217572
0.0215547
0.0212705
0.0208932
0.0204103
0.0198086
0.0190734
0.0181898
0.0171426
0.0159165
0.0144971
0.0128714
0.0110289
0.00896116
0.00666769
0.00414777
0.00141997
0.0223338
0.0223147
0.0222439
0.022111
0.0219056
0.0216165
0.0212323
0.0207403
0.020127
0.0193778
0.0184775
0.0174109
0.0161628
0.0147188
0.0130657
0.0111929
0.00909208
0.00676197
0.00420281
0.00143157
0.022708
0.0226897
0.0226188
0.0224844
0.0222757
0.0219814
0.0215896
0.0210877
0.0204619
0.0196977
0.0187797
0.0176927
0.0164215
0.0149517
0.01327
0.0113654
0.00922987
0.00686128
0.00426067
0.00144375
0.0231024
0.0230849
0.0230138
0.0228776
0.0226653
0.0223651
0.0219652
0.0214526
0.0208134
0.0200332
0.0190965
0.0179881
0.0166928
0.015196
0.0134843
0.0115466
0.00937462
0.00696566
0.00432136
0.00145647
0.0235171
0.0235005
0.0234291
0.023291
0.0230746
0.0227681
0.0223592
0.021835
0.0211816
0.0203843
0.019428
0.0182973
0.0169768
0.0154519
0.013709
0.0117367
0.00952641
0.00707514
0.00438488
0.00146969
0.0239525
0.0239367
0.0238649
0.0237246
0.0235037
0.0231903
0.0227718
0.0222351
0.0215665
0.0207513
0.0197745
0.0186204
0.0172737
0.0157196
0.0139441
0.0119356
0.0096853
0.00718975
0.00445123
0.00148339
0.0244088
0.0243937
0.0243215
0.0241786
0.0239529
0.0236317
0.0232028
0.0226529
0.0219682
0.0211342
0.0201359
0.0189575
0.0175837
0.0159991
0.0141898
0.0121435
0.00985135
0.0073095
0.00452043
0.00149754
0.024886
0.0248717
0.0247989
0.0246532
0.024422
0.0240925
0.0236523
0.0230883
0.0223867
0.021533
0.0205124
0.0193089
0.0179069
0.0162907
0.0144461
0.0123605
0.0100246
0.0074344
0.00459247
0.0015121
0.025384
0.0253704
0.025297
0.0251482
0.024911
0.0245725
0.0241203
0.0235413
0.0228219
0.0219479
0.0209041
0.0196746
0.0182434
0.0165945
0.0147132
0.0125866
0.0102052
0.0075645
0.00466738
0.00152706
0.0259024
0.0258896
0.0258155
0.0256634
0.0254197
0.0250715
0.0246064
0.0240117
0.0232739
0.0223788
0.021311
0.0200547
0.0185933
0.0169105
0.0149912
0.0128219
0.010393
0.00769981
0.00474517
0.00154241
0.0264403
0.0264286
0.0263537
0.0261981
0.0259475
0.025589
0.0251104
0.0244993
0.0237425
0.0228256
0.0217333
0.0204493
0.0189568
0.0172389
0.0152801
0.0130666
0.0105882
0.0078404
0.00482588
0.00155814
0.0269963
0.026986
0.0269106
0.0267516
0.0264937
0.0261245
0.0256319
0.0250039
0.0242275
0.0232884
0.022171
0.0208585
0.0193339
0.0175798
0.01558
0.0133205
0.0107909
0.00798633
0.00490956
0.00157426
0.0275674
0.0275589
0.0274836
0.0273223
0.0270572
0.0266771
0.0261702
0.0255251
0.0247289
0.0237671
0.022624
0.0212824
0.0197247
0.0179331
0.0158911
0.013584
0.0110012
0.00813768
0.00499626
0.00159078
0.0281474
0.0281435
0.0280701
0.0279085
0.0276367
0.0272458
0.0267248
0.0260625
0.0252463
0.0242617
0.0230924
0.021721
0.0201293
0.0182992
0.0162134
0.0138571
0.0112192
0.00829458
0.00508606
0.00160775
0.0287253
0.0287274
0.0286609
0.028505
0.0282293
0.0278293
0.0272947
0.0266157
0.0257796
0.0247719
0.0235761
0.0221743
0.0205479
0.0186782
0.0165473
0.0141401
0.0114451
0.00845718
0.00517908
0.0016252
0.0292451
0.0292803
0.0292465
0.029108
0.028833
0.0284261
0.0278792
0.0271842
0.0263285
0.0252979
0.0240754
0.0226427
0.0209807
0.0190703
0.016893
0.0144331
0.0116792
0.00862568
0.00527545
0.0016432
0.0294848
0.0296406
0.0297584
0.0296959
0.029441
0.0290342
0.0284775
0.0277677
0.026893
0.0258398
0.0245903
0.0231264
0.021428
0.0194758
0.0172508
0.0147364
0.0119217
0.00880031
0.00537535
0.00166183
0.0274391
0.02884
0.0299477
0.0302124
0.03004
0.029651
0.0290882
0.0283664
0.0274731
0.0263979
0.0251214
0.0236258
0.0218902
0.0198952
0.017621
0.0150509
0.012173
0.00898139
0.00547898
0.0016812
0.00496177
0.0189084
0.0278488
0.0302682
0.0305627
0.0302677
0.0297112
0.0289812
0.02807
0.0269731
0.0256692
0.0241416
0.022368
0.020329
0.0180043
0.0153767
0.0124336
0.00916927
0.0055866
0.00170141
-0.196681
-0.0706976
0.0094707
0.0276839
0.0306763
0.0308457
0.0303428
0.0296134
0.0286847
0.0275664
0.0262347
0.0246746
0.0228623
0.0207782
0.0184014
0.0157145
0.012704
0.00936441
0.0056985
0.00172263
-0.751281
-0.490838
-0.113923
0.00992505
0.0290168
0.0312503
0.0309814
0.0302661
0.0293202
0.0281794
0.0268193
0.0252258
0.0233739
0.0212437
0.0188133
0.016065
0.012985
0.00956733
0.00581504
0.001745
-0.936902
-0.874669
-0.441659
-0.058248
0.0215797
0.0311336
0.0315923
0.0309364
0.0299784
0.0288136
0.0274247
0.0257967
0.0239041
0.0217265
0.019241
0.0164294
0.0132772
0.00977868
0.00593664
0.00176872
-0.949024
-1.0271
-0.694884
-0.161342
0.00820963
0.0299974
0.032086
0.0316096
0.0306581
0.0294691
0.0280513
0.0263878
0.0244539
0.0222276
0.0196857
0.0168085
0.0135816
0.00999906
0.00606373
0.00179398
-0.950419
-1.06845
-0.824613
-0.262567
-0.00980316
0.028483
0.0325626
0.0323032
0.0313615
0.0301482
0.028701
0.0270011
0.0250252
0.0227492
0.0201489
0.0172039
0.0138994
0.0102293
0.00619688
0.00182099
-0.95156
-1.09103
-0.932988
-0.395743
-0.0384498
0.0254977
0.0328869
0.0330094
0.0320914
0.0308547
0.0293765
0.0276393
0.0256201
0.0232927
0.0206322
0.0176172
0.0142318
0.0104704
0.0063367
0.00184997
-0.958455
-1.1129
-1.00535
-0.529837
-0.080231
0.0203916
0.032971
0.033716
0.0328442
0.0315884
0.0300781
0.0283036
0.0262403
0.0238603
0.0211378
0.0180501
0.0145804
0.0107233
0.00648378
0.00188118
-0.968475
-1.13448
-1.06402
-0.642596
-0.129602
0.0129514
0.0326922
0.0343967
0.0336197
0.0323495
0.0308075
0.028996
0.0268879
0.0244543
0.0216676
0.0185042
0.0149466
0.0109891
0.00663875
0.00191493
-0.98019
-1.15704
-1.1154
-0.744572
-0.189185
0.00303918
0.0320833
0.0350521
0.034416
0.0331382
0.031567
0.0297191
0.0275662
0.0250778
0.0222247
0.0189823
0.0153325
0.0112695
0.00680256
0.00195135
-0.99363
-1.18059
-1.16167
-0.829129
-0.246255
-0.0080673
0.0311905
0.035683
0.0352333
0.0339558
0.032359
0.030476
0.0282788
0.0257344
0.0228123
0.0194871
0.0157403
0.0115662
0.00697613
0.00199066
-1.00778
-1.20447
-1.20516
-0.909807
-0.318061
-0.0234434
0.0297504
0.0362663
0.0360677
0.0348038
0.0331866
0.0312711
0.0290302
0.0264284
0.0234341
0.0200215
0.016172
0.0118807
0.00716046
0.00203314
-1.02327
-1.22926
-1.24645
-0.976027
-0.378773
-0.0386024
0.0280444
0.0368038
0.0369175
0.0356843
0.0340539
0.0321098
0.0298259
0.0271649
0.0240948
0.0205892
0.0166305
0.012215
0.0073565
0.00207907
-1.0392
-1.25442
-1.28619
-1.04167
-0.458551
-0.061164
0.0253454
0.0372393
0.03778
0.036601
0.0349671
0.032999
0.0306726
0.0279501
0.0247991
0.0211938
0.0171186
0.0125709
0.00756525
0.00212865
-1.05563
-1.28043
-1.32644
-1.10021
-0.521721
-0.0805714
0.0226684
0.0376326
0.0386621
0.0375612
0.0359355
0.0339483
0.0315791
0.0287914
0.0255533
0.0218406
0.0176397
0.0129503
0.00778771
0.002182
-1.07197
-1.30602
-1.36344
-1.15574
-0.601835
-0.110369
0.018297
0.0378415
0.0395639
0.0385776
0.0369721
0.0349699
0.032556
0.0296973
0.026364
0.0225342
0.0181972
0.0133551
0.00802494
0.00223925
-1.08751
-1.32989
-1.39198
-1.2012
-0.665408
-0.137207
0.0139827
0.0380545
0.0405192
0.0396716
0.0380959
0.0360791
0.0336161
0.0306781
0.0272388
0.02328
0.0187943
0.0137874
0.00827782
0.0023004
-1.10266
-1.35311
-1.41915
-1.24397
-0.730547
-0.169149
0.00866691
0.0381802
0.0415423
0.0408681
0.0393301
0.0372944
0.0347741
0.0317456
0.0281861
0.0240835
0.0194349
0.0142492
0.00854726
0.00236537
-1.11787
-1.37629
-1.44607
-1.28457
-0.793676
-0.203499
0.00269831
0.0382917
0.0426758
0.0422015
0.040702
0.0386402
0.0360486
0.0329115
0.0292138
0.0249498
0.0201217
0.014742
0.00883375
0.00243394
-1.13315
-1.39942
-1.47302
-1.32484
-0.85566
-0.240055
-0.00387351
0.0384478
0.0439747
0.0437167
0.0422476
0.0401426
0.0374583
0.0341891
0.0303306
0.0258841
0.0208578
0.0152674
0.00913773
0.00250577
-1.1483
-1.42222
-1.49997
-1.36535
-0.916779
-0.278942
-0.0109996
0.0387317
0.045509
0.0454689
0.0440087
0.041831
0.0390226
0.035591
0.0315437
0.0268904
0.0216449
0.0158259
0.0094591
0.00258029
-1.16288
-1.44432
-1.52659
-1.40581
-0.978011
-0.320629
-0.0185959
0.0392516
0.0473651
0.0475222
0.0460306
0.0437362
0.0407606
0.0371283
0.032859
0.0279713
0.0224839
0.0164175
0.00979728
0.00265674
-1.17677
-1.46535
-1.55255
-1.44614
-1.03959
-0.365177
-0.0264869
0.0401486
0.0496419
0.0499467
0.0483598
0.0458873
0.0426894
0.0388095
0.0342799
0.0291275
0.0233743
0.0170412
0.0101512
0.00273411
-1.18995
-1.48539
-1.57759
-1.486
-1.10055
-0.412881
-0.0344342
0.0415773
0.0524435
0.0528128
0.0510399
0.0483086
0.0448201
0.040638
0.0358061
0.030357
0.0243137
0.0176949
0.0105191
0.00281109
-1.20153
-1.50419
-1.60155
-1.52474
-1.16239
-0.463545
-0.0419953
0.0437274
0.0558789
0.0561847
0.054105
0.0510145
0.0471556
0.0426109
0.0374325
0.0316548
0.0252979
0.0183752
0.0108985
0.00288616
-1.21238
-1.52175
-1.62426
-1.56214
-1.22408
-0.513088
-0.0485564
0.0468002
0.0600364
0.0601058
0.0575703
0.0540029
0.049686
0.0447165
0.0391479
0.0330116
0.0263196
0.0190773
0.0112865
0.00295749
-1.22274
-1.53902
-1.64556
-1.59812
-1.28185
-0.563194
-0.0542948
0.0509274
0.0649585
0.0645849
0.0614214
0.0572497
0.0523862
0.0469323
0.0409344
0.0344143
0.0273701
0.0197957
0.0116802
0.00302267
-1.23101
-1.55511
-1.66572
-1.63111
-1.33537
-0.608214
-0.058394
0.0561971
0.0706219
0.0695811
0.0656053
0.0607041
0.0552125
0.0492241
0.0427675
0.0358464
0.0284387
0.0205237
0.0120752
0.00307964
-1.23983
-1.57229
-1.68509
-1.66169
-1.386
-0.637248
-0.062206
0.0627907
0.0769754
0.0749936
0.0700233
0.0642833
0.0581012
0.0515458
0.0446159
0.0372882
0.0295141
0.0212543
0.0124671
0.00312648
-1.25249
-1.59212
-1.70426
-1.69042
-1.42824
-0.649849
-0.0614382
0.0699012
0.0837794
0.0806116
0.0745172
0.06787
0.060969
0.0538411
0.0464443
0.0387185
0.0305843
0.0219814
0.0128521
0.0031605
-1.26707
-1.61269
-1.72455
-1.71397
-1.4544
-0.649716
-0.0558935
0.0774133
0.0906963
0.0861543
0.0788802
0.0713183
0.0637176
0.0560478
0.0482158
0.0401171
0.0316392
0.0227001
0.0132276
0.00317887
-1.28409
-1.63519
-1.74592
-1.73391
-1.46835
-0.640744
-0.0459645
0.0847928
0.0972034
0.0912633
0.0828643
0.0744602
0.066239
0.0581028
0.0498971
0.0414685
0.0326725
0.0234078
0.0135921
0.00317944
-1.30515
-1.66031
-1.76894
-1.75197
-1.47685
-0.611106
-0.0338767
0.0905387
0.102635
0.0955142
0.0861908
0.0771157
0.0684277
0.0599511
0.0514641
0.0427647
0.0336835
0.0241059
0.013946
0.00315946
-1.33425
-1.69112
-1.79568
-1.76911
-1.47501
-0.555628
-0.0289157
0.0928243
0.106095
0.0984334
0.0885708
0.0791192
0.0702015
0.0615608
0.0529098
0.0440103
0.0346792
0.0247995
0.0142916
0.00311748
-1.36479
-1.72659
-1.82812
-1.78372
-1.44964
-0.497089
-0.0326441
0.0903295
0.10684
0.0995995
0.0897632
0.0803585
0.0715252
0.0629366
0.0542523
0.0452259
0.0356764
0.0254992
0.0146312
0.00305229
-1.40088
-1.76396
-1.86464
-1.8001
-1.40095
-0.454076
-0.0548164
0.0808154
0.104149
0.0986579
0.0896229
0.0808179
0.0724377
0.0641326
0.0555421
0.0464513
0.0367021
0.0262213
0.0149723
0.00296114
-1.44693
-1.81054
-1.90771
-1.81369
-1.32467
-0.453623
-0.106198
0.0603114
0.0970382
0.0953526
0.0881854
0.0806229
0.0730677
0.0652654
0.0568677
0.0477476
0.0377942
0.0269852
0.0153226
0.00284104
-1.48602
-1.8625
-1.96286
-1.8273
-1.27455
-0.506216
-0.201146
0.0247966
0.0847888
0.0897246
0.085751
0.0800912
0.0736759
0.066521
0.0583562
0.0491961
0.039
0.0278142
0.0156887
0.00268784
-1.51856
-1.90564
-2.0094
-1.86792
-1.31498
-0.641474
-0.335092
-0.0296945
0.067641
0.0824854
0.082993
0.0797504
0.0746471
0.0681488
0.0601679
0.0508908
0.0403692
0.028731
0.0160757
0.0024947
-1.54902
-1.94453
-2.0635
-1.92901
-1.39795
-0.848049
-0.566556
-0.116695
0.0465995
0.0753639
0.0812006
0.0803566
0.076465
0.07045
0.0624797
0.0529275
0.041948
0.029752
0.0164836
0.00225155
-1.57135
-1.96976
-2.10799
-2.01002
-1.56976
-1.15215
-0.848865
-0.229139
0.0235811
0.0708678
0.0818498
0.082845
0.0796117
0.0737105
0.0654526
0.0553849
0.0437678
0.0308833
0.0169045
0.00194299
-1.57314
-1.97378
-2.13261
-2.08037
-1.74354
-1.42054
-1.13787
-0.362138
0.00156881
0.0712805
0.0861918
0.0879593
0.0845942
0.0781721
0.0691994
0.0583056
0.0458344
0.0321124
0.0173192
0.00154717
-1.55722
-1.95665
-2.13598
-2.17645
-1.96171
-1.65959
-1.3789
-0.499325
-0.018731
0.0777205
0.0951996
0.0961584
0.0916252
0.0839307
0.0737375
0.0616754
0.0481189
0.0334041
0.017693
0.00103499
-1.5236
-1.93108
-2.11921
-2.19929
-2.05011
-1.77777
-1.529
-0.600959
-0.0325502
0.0895179
0.108743
0.107404
0.100574
0.090878
0.0789693
0.0654104
0.0505481
0.0346945
0.017974
0.000367197
-1.47423
-1.90176
-2.09682
-2.19098
-2.13555
-1.93502
-1.64546
-0.629593
-0.0262119
0.107743
0.126051
0.121008
0.111006
0.0987264
0.0846863
0.0693561
0.0530008
0.035889
0.0180908
-0.000506181
-1.42934
-1.88007
-2.07869
-2.18648
-2.193
-2.06301
-1.66107
-0.579691
0.00153872
0.130148
0.145177
0.135837
0.122229
0.107032
0.0905892
0.0732883
0.0553102
0.036861
0.0179509
-0.00164631
-1.40429
-1.87583
-2.06722
-2.17202
-2.21615
-2.10229
-1.60159
-0.473988
0.0386261
0.154146
0.164402
0.150732
0.133493
0.115273
0.0963065
0.076933
0.057265
0.0374546
0.0174421
-0.00312554
-1.39406
-1.87752
-2.07028
-2.17341
-2.2217
-2.10965
-1.48072
-0.34876
0.0762554
0.177036
0.182274
0.164719
0.144078
0.122907
0.10143
0.0799671
0.0586209
0.0374824
0.0164349
-0.00502792
-1.39848
-1.88491
-2.079
-2.18062
-2.22577
-2.10804
-1.29554
-0.231619
0.109603
0.198374
0.197822
0.177039
0.153358
0.12941
0.105514
0.0820506
0.0590908
0.0367361
0.0147762
-0.00744393
-1.51232
-1.8975
-2.09194
-2.19426
-2.23279
-2.10461
-1.09742
-0.139255
0.138003
0.216833
0.211189
0.187276
0.160791
0.134279
0.108109
0.0827979
0.0583711
0.0349683
0.012298
-0.0104683
-1.69114
-1.92981
-2.11411
-2.21427
-2.24861
-2.08711
-0.879823
-0.0690211
0.162578
0.231912
0.221322
0.194789
0.165823
0.136978
0.108763
0.0817889
0.0561349
0.0319158
0.00881847
-0.0141949
-1.82017
-1.97423
-2.14852
-2.242
-2.25766
-2.02886
-0.652814
-0.0139103
0.185683
0.241866
0.227684
0.198959
0.167843
0.136942
0.106981
0.0785838
0.0520222
0.0273182
0.0041449
-0.018726
-1.92372
-2.02373
-2.19168
-2.27564
-2.25643
-1.90073
-0.448267
0.0261042
0.203026
0.246678
0.229302
0.198856
0.166175
0.133492
0.102185
0.0727371
0.045623
0.0209019
-0.00191556
-0.0241711
-2.01492
-2.07853
-2.24004
-2.31478
-2.24362
-1.68032
-0.292654
0.0587314
0.210786
0.245133
0.22471
0.193183
0.159603
0.125883
0.0936338
0.0637602
0.0365165
0.0123645
-0.00954593
-0.0306216
-2.09999
-2.1498
-2.30159
-2.36772
-2.20658
-1.38004
-0.211873
0.0798714
0.208844
0.234228
0.211324
0.179688
0.146382
0.112881
0.0805213
0.0509806
0.0243159
0.00137834
-0.0189098
-0.0381209
-2.17725
-2.23104
-2.36384
-2.41197
-2.14744
-1.07143
-0.165411
0.0834918
0.194957
0.208685
0.184591
0.154338
0.123665
0.0923742
0.0617389
0.0336328
0.00856022
-0.0123353
-0.0301652
-0.0466792
-2.25075
-2.30211
-2.41943
-2.44817
-2.05751
-0.821777
-0.144813
0.0656955
0.160094
0.16021
0.136524
0.110412
0.0861472
0.0609128
0.0353123
0.01081
-0.0112971
-0.0290032
-0.0434253
-0.0562551
-2.33022
-2.38118
-2.47839
-2.43227
-1.93365
-0.663058
-0.162914
0.0235933
0.088559
0.074251
0.0529847
0.0369917
0.0249434
0.0125707
-0.00211343
-0.0188794
-0.0358316
-0.0488166
-0.0587384
-0.0667547
-2.41599
-2.46532
-2.54977
-2.44176
-1.80148
-0.588698
-0.211212
-0.0625484
-0.0384685
-0.0619903
-0.0796308
-0.0838092
-0.0757604
-0.0637235
-0.0565276
-0.0576378
-0.0656674
-0.072031
-0.0760408
-0.07804
-2.50849
-2.55815
-2.62986
-2.44563
-1.65286
-0.595864
-0.301087
-0.223765
-0.238423
-0.271293
-0.285744
-0.268877
-0.229099
-0.179616
-0.135602
-0.10776
-0.10146
-0.0988752
-0.0952324
-0.0898721
-2.61394
-2.66801
-2.73257
-2.4433
-1.52075
-0.662735
-0.457494
-0.436026
-0.477351
-0.533447
-0.560555
-0.525894
-0.450948
-0.349598
-0.247911
-0.169597
-0.144118
-0.129618
-0.116184
-0.101893
-2.73518
-2.79339
-2.84088
-2.46201
-1.45768
-0.771294
-0.697431
-0.724574
-0.782344
-0.85842
-0.890503
-0.834739
-0.712325
-0.560893
-0.402369
-0.249079
-0.194839
-0.164777
-0.138714
-0.113612
-2.86619
-2.92336
-2.95167
-2.50538
-1.49518
-0.947006
-0.970487
-1.02289
-1.14849
-1.24795
-1.24642
-1.16635
-1.05798
-0.875157
-0.631861
-0.348717
-0.25819
-0.205638
-0.162682
-0.124242
-3.00167
-3.05611
-3.04683
-2.55367
-1.60774
-1.23047
-1.26925
-1.35842
-1.50615
-1.59075
-1.62057
-1.62705
-1.49936
-1.2567
-0.930492
-0.485851
-0.338449
-0.254084
-0.188317
-0.133626
-3.13584
-3.18409
-3.13909
-2.60493
-1.73075
-1.48528
-1.54098
-1.67148
-1.77103
-1.93608
-2.09379
-2.09532
-1.95737
-1.67918
-1.29825
-0.685311
-0.456384
-0.312785
-0.215599
-0.142749
-3.27058
-3.31651
-3.23419
-2.68477
-1.87888
-1.74506
-1.82852
-1.90063
-2.10263
-2.34223
-2.49508
-2.51688
-2.38793
-2.12202
-1.72269
-0.95884
-0.598534
-0.381355
-0.244047
-0.150911
-3.4051
-3.45231
-3.34707
-2.81683
-2.1375
-1.99001
-2.04341
-2.20696
-2.43996
-2.67085
-2.82777
-2.85567
-2.77936
-2.54983
-2.1512
-1.3444
-0.782348
-0.463863
-0.274539
-0.156919
-3.53329
-3.57715
-3.46466
-2.96366
-2.3296
-2.18715
-2.31995
-2.47695
-2.6657
-2.87777
-3.04464
-3.13139
-3.11317
-2.93475
-2.53955
-1.80032
-1.01655
-0.563701
-0.308316
-0.160486
-3.64579
-3.69224
-3.59719
-3.10402
-2.50299
-2.45478
-2.57859
-2.68397
-2.82044
-3.02202
-3.22013
-3.34745
-3.37364
-3.25656
-2.91975
-2.23133
-1.29871
-0.683707
-0.346168
-0.162722
-3.74109
-3.78272
-3.71388
-3.28981
-2.7843
-2.71205
-2.79026
-2.86236
-2.96035
-3.13778
-3.34391
-3.49753
-3.56387
-3.50562
-3.2477
-2.63716
-1.62144
-0.827302
-0.38963
-0.165317
-3.81418
-3.85181
-3.79018
-3.46935
-3.03612
-2.94835
-3.00898
-3.06332
-3.1054
-3.22114
-3.41514
-3.58751
-3.69599
-3.69023
-3.50918
-2.9999
-1.96278
-0.992648
-0.440043
-0.17
-3.86542
-3.92041
-3.96575
-3.76565
-3.3694
-3.22134
-3.25109
-3.28988
-3.27377
-3.29348
-3.44065
-3.62579
-3.77854
-3.82303
-3.70967
-3.30483
-2.30125
-1.17411
-0.496685
-0.178362
-3.86883
-3.91913
-3.98419
-3.84237
-3.6419
-3.51396
-3.49533
-3.52402
-3.47546
-3.38975
-3.45355
-3.62451
-3.82099
-3.91541
-3.85782
-3.5472
-2.61841
-1.36909
-0.56005
-0.191601
-3.88983
-3.94826
-4.05229
-4.1138
-4.02074
-3.84176
-3.74572
-3.73706
-3.68706
-3.51775
-3.47082
-3.59894
-3.83019
-3.97732
-3.96461
-3.73508
-2.89551
-1.56765
-0.630073
-0.211736
-3.92255
-3.95743
-4.03909
-4.10826
-4.11696
-4.03698
-3.93984
-3.90414
-3.8612
-3.6676
-3.51015
-3.57174
-3.81397
-4.01426
-4.03952
-3.87732
-3.12405
-1.7525
-0.700211
-0.238624
-3.95929
-3.98505
-4.05715
-4.13909
-4.20001
-4.14761
-4.06656
-4.0191
-3.98512
-3.81291
-3.58772
-3.58189
-3.78581
-4.03164
-4.0891
-3.97663
-3.30582
-1.92136
-0.770591
-0.270738
-3.99448
-4.01188
-4.05764
-4.12554
-4.18952
-4.2205
-4.17576
-4.10976
-4.07432
-3.92784
-3.66412
-3.60742
-3.77243
-4.03591
-4.11918
-4.04026
-3.43257
-2.05008
-0.832282
-0.30666
-4.02521
-4.02794
-4.06502
-4.12166
-4.17734
-4.20891
-4.21787
-4.17667
-4.13793
-4.01101
-3.74073
-3.65385
-3.77737
-4.03839
-4.13815
-4.07447
-3.51147
-2.1365
-0.871223
-0.338298
-4.05573
-4.0501
-4.07038
-4.11053
-4.15358
-4.18681
-4.20428
-4.20542
-4.18199
-4.07503
-3.82935
-3.72705
-3.81862
-4.04864
-4.15434
-4.09808
-3.54288
-2.1621
-0.880094
-0.357002
-4.08263
-4.07055
-4.06862
-4.09962
-4.13437
-4.17217
-4.18694
-4.19946
-4.20192
-4.13827
-3.92579
-3.81846
-3.88273
-4.07422
-4.16899
-4.11171
-3.51265
-2.10782
-0.849153
-0.359924
-4.10322
-4.08341
-4.07058
-4.08264
-4.11594
-4.15202
-4.18361
-4.186
-4.1962
-4.14625
-3.97674
-3.89551
-3.95463
-4.1105
-4.18083
-4.11397
-3.41559
-1.97261
-0.778619
-0.344832
-4.06915
-4.09058
-4.07182
-4.07551
-4.09694
-4.12534
-4.15589
-4.18526
-4.20146
-4.21229
-4.11134
-4.01881
-4.04827
-4.15124
-4.1873
-4.09556
-3.23072
-1.76457
-0.680212
-0.318346
-4.01954
-4.09585
-4.07474
-4.06527
-4.07869
-4.10308
-4.13517
-4.16765
-4.19007
-4.20578
-4.14495
-4.08643
-4.11336
-4.1803
-4.18468
-4.02698
-2.96018
-1.50418
-0.568432
-0.286546
-4.00581
-4.09564
-4.07517
-4.05795
-4.06107
-4.08199
-4.11082
-4.14384
-4.16856
-4.18729
-4.19098
-4.14651
-4.14976
-4.18839
-4.17333
-3.87116
-2.5924
-1.22284
-0.461229
-0.25487
-4.01362
-4.09613
-4.07783
-4.05525
-4.04999
-4.0641
-4.08734
-4.11734
-4.14109
-4.16278
-4.17561
-4.16461
-4.16613
-4.17901
-4.1442
-3.57542
-2.11741
-0.951278
-0.366244
-0.225307
-4.04148
-4.09826
-4.08272
-4.05762
-4.04732
-4.05258
-4.06893
-4.09178
-4.11026
-4.12629
-4.13853
-4.13736
-4.13747
-4.1438
-4.06653
-3.1072
-1.63916
-0.723587
-0.289235
-0.198407
-4.09106
-4.10545
-4.08931
-4.06889
-4.05269
-4.05066
-4.05896
-4.07142
-4.08193
-4.08948
-4.09686
-4.09808
-4.09242
-4.09966
-3.87127
-2.57094
-1.21746
-0.552276
-0.230572
-0.17236
-4.1227
-4.11161
-4.09494
-4.07841
-4.06252
-4.05565
-4.05441
-4.0548
-4.05412
-4.05167
-4.04505
-4.04219
-4.03813
-4.01349
-3.37277
-1.89446
-0.891858
-0.431813
-0.18444
-0.146095
-4.12776
-4.11488
-4.09782
-4.0849
-4.07211
-4.06399
-4.05548
-4.04446
-4.03284
-4.02178
-4.00862
-4.00561
-4.00678
-3.86916
-2.68186
-1.41288
-0.699437
-0.348675
-0.146926
-0.122113
-4.12332
-4.11093
-4.09478
-4.08513
-4.07666
-4.06915
-4.05824
-4.04421
-4.02917
-4.0141
-4.00268
-4.00307
-4.00133
-3.39868
-2.11794
-1.16358
-0.590059
-0.286819
-0.115528
-0.101417
-4.10964
-4.09698
-4.08163
-4.07469
-4.07091
-4.06396
-4.05508
-4.04362
-4.0329
-4.02526
-4.02533
-4.04315
-3.86224
-2.87946
-1.85387
-1.04479
-0.511826
-0.234323
-0.0882066
-0.0825241
-4.08748
-4.07446
-4.05862
-4.05196
-4.04961
-4.04476
-4.04226
-4.04039
-4.04193
-4.05226
-4.06495
-4.11129
-3.55833
-2.70271
-1.79579
-0.978309
-0.448915
-0.189978
-0.0649156
-0.0660074
-4.06445
-4.0502
-4.03251
-4.0246
-4.02176
-4.02323
-4.02891
-4.0331
-4.04679
-4.08057
-4.11695
-4.08445
-3.46899
-2.72291
-1.76569
-0.897773
-0.3803
-0.147121
-0.0436593
-0.0519416
-4.04924
-4.03425
-4.01515
-4.00712
-4.00732
-4.01301
-4.02766
-4.05112
-4.08948
-4.13135
-4.16713
-3.98127
-3.51877
-2.75961
-1.65344
-0.76313
-0.299057
-0.105823
-0.0251073
-0.0408434
-4.04515
-4.02563
-4.00422
-3.99792
-4.00308
-4.01887
-4.04583
-4.08303
-4.12249
-4.15573
-4.18463
-3.99542
-3.59781
-2.68887
-1.42545
-0.619454
-0.229156
-0.0728405
-0.0104754
-0.0322768
-3.99657
-4.0173
-3.99893
-3.99344
-3.99987
-4.01577
-4.04486
-4.08377
-4.13077
-4.16882
-4.17496
-4.06061
-3.58175
-2.48911
-1.30653
-0.500041
-0.168264
-0.0436947
0.00280563
-0.0242681
-3.93097
-4.02088
-4.00608
-4.00071
-4.00808
-4.02504
-4.05275
-4.08983
-4.13071
-4.16462
-4.16421
-4.03994
-3.35328
-2.0375
-0.890115
-0.330994
-0.103822
-0.0147267
0.0164417
-0.0159176
-3.89044
-4.02895
-4.01684
-4.01093
-4.01757
-4.03524
-4.06376
-4.09431
-4.12455
-4.15159
-4.1352
-3.92442
-2.88202
-1.4657
-0.571364
-0.198653
-0.0481011
0.0138161
0.0309936
-0.00651551
-3.87477
-4.03801
-4.0284
-4.02219
-4.02673
-4.04371
-4.06865
-4.09381
-4.1171
-4.13313
-4.0669
-3.41681
-2.05309
-0.888139
-0.327434
-0.10188
-0.000934468
0.0416411
0.0458864
0.00372786
-3.87083
-4.04712
-4.03994
-4.03442
-4.03936
-4.05489
-4.07511
-4.09625
-4.11492
-4.10805
-3.83142
-2.69741
-1.33301
-0.519393
-0.180099
-0.0348355
0.0385949
0.0682652
0.0618733
0.0145625
-3.87382
-4.05797
-4.05307
-4.04946
-4.0572
-4.06797
-4.08593
-4.10563
-4.12443
-4.03507
-3.25737
-1.88836
-0.807976
-0.297884
-0.0898375
0.0161745
0.0759666
0.0962577
0.0789705
0.0245076
-3.87898
-4.07156
-4.06945
-4.06732
-4.07261
-4.08315
-4.1011
-4.11807
-4.10058
-3.68038
-2.51881
-1.22273
-0.481502
-0.169566
-0.023656
0.0629478
0.112384
0.123865
0.0952479
0.032794
-3.87764
-4.08314
-4.08317
-4.08399
-4.09022
-4.10398
-4.12348
-4.14226
-3.98747
-3.13812
-1.79368
-0.76879
-0.293683
-0.0871058
0.0263123
0.104289
0.151082
0.153504
0.111369
0.0397976
-3.85782
-4.09788
-4.10034
-4.10266
-4.11018
-4.12703
-4.14793
-4.13229
-3.68689
-2.49135
-1.21433
-0.487483
-0.181891
-0.0322929
0.070288
0.154513
0.196964
0.182969
0.125333
0.0450242
-3.83049
-4.11441
-4.11966
-4.12399
-4.1346
-4.15458
-4.17349
-4.0223
-3.21198
-1.83858
-0.794819
-0.312931
-0.111841
0.0190688
0.135449
0.220102
0.242851
0.206972
0.135873
0.0483405
-3.79461
-4.11522
-4.13675
-4.14351
-4.15921
-4.17835
-4.16242
-3.76952
-2.60797
-1.26786
-0.512409
-0.210019
-0.0548113
0.0935229
0.218204
0.283519
0.278419
0.223726
0.143683
0.0506595
-3.75308
-4.09481
-4.15456
-4.16638
-4.18264
-4.19988
-4.08371
-3.3299
-1.92862
-0.821784
-0.340408
-0.137936
0.0338053
0.195896
0.301256
0.331914
0.301341
0.235449
0.150093
0.0526625
-3.71153
-4.07342
-4.16997
-4.18517
-4.19826
-4.17377
-3.84185
-2.68759
-1.29152
-0.52787
-0.23711
-0.0381813
0.15333
0.295151
0.359144
0.360562
0.317979
0.245344
0.155615
0.0544474
-3.65803
-4.05706
-4.18574
-4.20048
-4.19886
-4.07681
-3.36059
-1.92564
-0.814515
-0.360993
-0.124292
0.0918268
0.261076
0.356244
0.395976
0.385716
0.332305
0.253893
0.160848
0.0563373
-3.57862
-4.03087
-4.17743
-4.20153
-4.15116
-3.812
-2.64515
-1.24972
-0.529044
-0.225799
0.0124882
0.201776
0.328046
0.411505
0.436171
0.406513
0.344048
0.261703
0.165793
0.0581746
-3.46438
-3.97569
-4.13591
-4.15216
-3.98969
-3.29454
-1.84407
-0.785725
-0.342921
-0.0831754
0.121971
0.278007
0.409584
0.466857
0.463358
0.421417
0.354048
0.268868
0.17044
0.0598843
-3.31548
-3.88341
-4.03227
-3.99746
-3.68916
-2.55324
-1.18332
-0.501904
-0.189098
0.0287527
0.208558
0.377106
0.472538
0.497847
0.480146
0.432791
0.362866
0.27556
0.174834
0.0614549
-3.14612
-3.7667
-3.89927
-3.80354
-3.1847
-1.78075