/*--------------------------------*- C++ -*----------------------------------*\
| =========                 |                                                 |
| \\      /  F ield         | OpenFOAM: The Open Source CFD Toolbox           |
|  \\    /   O peration     | Version:  dev                                   |
|   \\  /    A nd           | Web:      www.OpenFOAM.org                      |
|    \\/     M anipulation  |                                                 |
\*---------------------------------------------------------------------------*/
FoamFile
{
    version     2.0;
    format      ascii;
    class       surfaceScalarField;
    location    "100";
    object      phi;
}
// * * * * * * * * * * * * * * * * * * * * * * * * * * * * * * * * * * * * * //

dimensions      [1 0 -1 0 0 0 0];

internalField   nonuniform List<scalar> 
7780
(
2.53094e-06
8.39905e-06
2.4152e-06
1.16963e-05
1.66585e-06
1.30193e-05
1.12868e-06
1.35375e-05
7.76819e-07
1.4126e-05
5.87732e-07
1.47831e-05
4.86697e-07
1.55638e-05
4.45259e-07
1.64246e-05
4.40209e-07
1.73634e-05
4.65835e-07
1.8366e-05
4.98813e-07
1.94534e-05
5.5457e-07
2.05905e-05
5.99475e-07
2.18303e-05
6.74784e-07
2.31019e-05
7.25465e-07
2.45061e-05
8.3776e-07
2.59061e-05
9.28474e-07
2.74763e-05
1.12863e-06
2.90077e-05
1.50554e-06
3.05693e-05
3.20454e-05
2.1117e-06
6.28797e-06
2.85348e-06
1.09551e-05
2.59912e-06
1.32743e-05
1.98342e-06
1.41538e-05
1.34746e-06
1.47627e-05
8.53988e-07
1.52773e-05
5.01695e-07
1.59169e-05
2.67469e-07
1.66596e-05
1.18616e-07
1.75131e-05
2.34286e-08
1.8462e-05
-1.76563e-08
1.94953e-05
-4.6952e-08
2.06206e-05
-2.62079e-08
2.18104e-05
-2.32712e-08
2.30998e-05
7.92767e-08
2.44043e-05
1.42658e-07
2.58434e-05
4.31968e-07
2.71876e-05
7.89228e-07
2.86509e-05
1.78082e-06
2.9578e-05
3.05612e-05
1.62001e-06
4.66858e-06
2.59738e-06
9.97835e-06
2.7218e-06
1.31505e-05
2.29727e-06
1.4579e-05
1.65473e-06
1.54059e-05
1.01873e-06
1.59141e-05
4.91593e-07
1.64448e-05
9.26891e-08
1.70594e-05
-1.94486e-07
1.78011e-05
-4.01517e-07
1.86699e-05
-5.31921e-07
1.96266e-05
-6.30596e-07
2.07202e-05
-6.55793e-07
2.18364e-05
-6.8105e-07
2.31259e-05
-5.80943e-07
2.4305e-05
-4.74793e-07
2.5738e-05
-6.07711e-08
2.67742e-05
4.6171e-07
2.81288e-05
1.8699e-06
2.81701e-05
2.86323e-05
1.01367e-06
3.65555e-06
1.96841e-06
9.02423e-06
2.37916e-06
1.27404e-05
2.17823e-06
1.47807e-05
1.6492e-06
1.59357e-05
9.98827e-07
1.65653e-05
3.83388e-07
1.70611e-05
-1.3288e-07
1.75765e-05
-5.36889e-07
1.8206e-05
-8.44543e-07
1.89785e-05
-1.06289e-06
1.98459e-05
-1.22823e-06
2.08864e-05
-1.30338e-06
2.19125e-05
-1.35623e-06
2.31796e-05
-1.26304e-06
2.42126e-05
-1.13591e-06
2.56116e-05
-6.39444e-07
2.62783e-05
2.77192e-09
2.74871e-05
1.63398e-06
2.65392e-05
2.6496e-05
6.21784e-07
3.03442e-06
1.37003e-06
8.27663e-06
1.83547e-06
1.22757e-05
1.80337e-06
1.48136e-05
1.40569e-06
1.63342e-05
8.04897e-07
1.71669e-05
1.63326e-07
1.77035e-05
-4.26075e-07
1.81668e-05
-9.19641e-07
1.87005e-05
-1.31479e-06
1.93746e-05
-1.615e-06
2.0147e-05
-1.84112e-06
2.11135e-05
-1.97415e-06
2.20464e-05
-2.06106e-06
2.32674e-05
-1.98235e-06
2.41348e-05
-1.84338e-06
2.54734e-05
-1.31643e-06
2.5752e-05
-6.00402e-07
2.67716e-05
1.12641e-06
2.48127e-05
2.42742e-05
3.68308e-07
2.66678e-06
8.94906e-07
7.75071e-06
1.29011e-06
1.18812e-05
1.32335e-06
1.47811e-05
1.01829e-06
1.66401e-05
4.77894e-07
1.77082e-05
-1.58737e-07
1.83411e-05
-7.87258e-07
1.87963e-05
-1.34638e-06
1.92606e-05
-1.81335e-06
1.98425e-05
-2.1893e-06
2.0524e-05
-2.47339e-06
2.13986e-05
-2.67073e-06
2.22448e-05
-2.77923e-06
2.33769e-05
-2.75678e-06
2.41132e-05
-2.61268e-06
2.53301e-05
-2.09937e-06
2.52394e-05
-1.38359e-06
2.60563e-05
3.59664e-07
2.30698e-05
2.20844e-05
2.11183e-07
2.45629e-06
5.37606e-07
7.42498e-06
8.0319e-07
1.16164e-05
8.20054e-07
1.47651e-05
5.53681e-07
1.69074e-05
5.53675e-08
1.82074e-05
-5.68288e-07
1.89657e-05
-1.21901e-06
1.9448e-05
-1.82755e-06
1.98701e-05
-2.35742e-06
2.03734e-05
-2.80084e-06
2.09684e-05
-3.14986e-06
2.17486e-05
-3.40612e-06
2.2502e-05
-3.55881e-06
2.35305e-05
-3.58403e-06
2.41393e-05
-3.45332e-06
2.52002e-05
-3.01707e-06
2.48038e-05
-2.36145e-06
2.54012e-05
-7.28031e-07
2.14367e-05
1.99689e-05
1.10052e-07
2.34695e-06
2.68248e-07
7.2675e-06
3.85543e-07
1.14999e-05
3.30904e-07
1.48206e-05
5.33297e-08
1.71859e-05
-4.32244e-07
1.86939e-05
-1.0512e-06
1.95856e-05
-1.7196e-06
2.01174e-05
-2.36946e-06
2.0521e-05
-2.95566e-06
2.09607e-05
-3.46307e-06
2.14769e-05
-3.87872e-06
2.21653e-05
-4.20121e-06
2.28255e-05
-4.41229e-06
2.37426e-05
-4.49734e-06
2.42253e-05
-4.41806e-06
2.51217e-05
-4.08309e-06
2.44695e-05
-3.47858e-06
2.47972e-05
-2.05078e-06
2.00092e-05
1.79839e-05
4.11167e-08
2.30658e-06
6.03468e-08
7.24902e-06
2.93424e-08
1.15317e-05
-1.26973e-07
1.49778e-05
-4.56403e-07
1.75162e-05
-9.60802e-07
1.91993e-05
-1.59204e-06
2.02178e-05
-2.284e-06
2.08103e-05
-2.97236e-06
2.12104e-05
-3.61199e-06
2.16013e-05
-4.18289e-06
2.20488e-05
-4.66786e-06
2.26514e-05
-5.06562e-06
2.32244e-05
-5.35061e-06
2.40286e-05
-5.51521e-06
2.43909e-05
-5.51899e-06
2.51264e-05
-5.3021e-06
2.42534e-05
-4.78716e-06
2.42828e-05
-3.57475e-06
1.87971e-05
1.61571e-05
-9.65626e-09
2.31701e-06
-1.06985e-07
7.34712e-06
-2.78222e-07
1.17037e-05
-5.53793e-07
1.52542e-05
-9.63137e-07
1.79265e-05
-1.51425e-06
1.97514e-05
-2.17723e-06
2.08818e-05
-2.90112e-06
2.15353e-05
-3.63249e-06
2.19429e-05
-4.3267e-06
2.22967e-05
-4.96291e-06
2.26862e-05
-5.52092e-06
2.32105e-05
-6.00375e-06
2.37083e-05
-6.37936e-06
2.44053e-05
-6.64731e-06
2.46598e-05
-6.76251e-06
2.52424e-05
-6.68623e-06
2.41778e-05
-6.29546e-06
2.38926e-05
-5.33749e-06
1.78394e-05
1.45359e-05
-4.9783e-08
2.3676e-06
-2.47835e-07
7.54598e-06
-5.50612e-07
1.20074e-05
-9.51946e-07
1.56565e-05
-1.4612e-06
1.84367e-05
-2.08218e-06
2.03734e-05
-2.79595e-06
2.15967e-05
-3.56483e-06
2.23053e-05
-4.34549e-06
2.27247e-05
-5.09821e-06
2.30505e-05
-5.80416e-06
2.33933e-05
-6.44201e-06
2.38495e-05
-7.01963e-06
2.4287e-05
-7.504e-06
2.48907e-05
-7.90073e-06
2.50575e-05
-8.15379e-06
2.54964e-05
-8.24543e-06
2.42702e-05
-8.02059e-06
2.36684e-05
-7.37149e-06
1.71907e-05
1.31801e-05
-8.35756e-08
2.45203e-06
-3.71934e-07
7.83519e-06
-7.98442e-07
1.24348e-05
-1.32893e-06
1.6188e-05
-1.95084e-06
1.90597e-05
-2.65939e-06
2.1083e-05
-3.44123e-06
2.23796e-05
-4.26848e-06
2.31336e-05
-5.10709e-06
2.35644e-05
-5.92559e-06
2.38702e-05
-6.70851e-06
2.41774e-05
-7.43647e-06
2.45787e-05
-8.12086e-06
2.49726e-05
-8.73253e-06
2.55035e-05
-9.28263e-06
2.56087e-05
-9.69897e-06
2.59137e-05
-9.98119e-06
2.45533e-05
-9.95069e-06
2.36385e-05
-9.61182e-06
1.68521e-05
1.20916e-05
-1.14404e-07
2.56732e-06
-4.86355e-07
8.20803e-06
-1.03145e-06
1.29809e-05
-1.69164e-06
1.68492e-05
-2.43563e-06
1.98047e-05
-3.24471e-06
2.18932e-05
-4.10998e-06
2.3246e-05
-5.00853e-06
2.40334e-05
-5.91639e-06
2.44735e-05
-6.81022e-06
2.47653e-05
-7.68012e-06
2.50485e-05
-8.51178e-06
2.54116e-05
-9.3188e-06
2.57808e-05
-1.00755e-05
2.62614e-05
-1.07981e-05
2.63324e-05
-1.14004e-05
2.6517e-05
-1.18854e-05
2.50391e-05
-1.20527e-05
2.38063e-05
-1.19863e-05
1.67861e-05
1.12371e-05
-1.44278e-07
2.71253e-06
-5.96423e-07
8.66111e-06
-1.257e-06
1.36425e-05
-2.04757e-06
1.76408e-05
-2.91774e-06
2.0676e-05
-3.84288e-06
2.28195e-05
-4.80309e-06
2.42074e-05
-5.78518e-06
2.50167e-05
-6.77474e-06
2.54643e-05
-7.75453e-06
2.57463e-05
-8.72551e-06
2.60208e-05
-9.67654e-06
2.63639e-05
-1.06246e-05
2.67301e-05
-1.15438e-05
2.71818e-05
-1.24526e-05
2.72424e-05
-1.32533e-05
2.73188e-05
-1.39422e-05
2.57289e-05
-1.42834e-05
2.41482e-05
-1.44247e-05
1.69278e-05
1.05692e-05
-1.73652e-07
2.88717e-06
-7.06175e-07
9.19463e-06
-1.48213e-06
1.44195e-05
-2.40509e-06
1.85649e-05
-3.40813e-06
2.16802e-05
-4.45343e-06
2.38661e-05
-5.52107e-06
2.52763e-05
-6.59996e-06
2.60969e-05
-7.68256e-06
2.65483e-05
-8.7685e-06
2.68336e-05
-9.85384e-06
2.71075e-05
-1.09412e-05
2.74526e-05
-1.20483e-05
2.78386e-05
-1.31472e-05
2.82819e-05
-1.42512e-05
2.83476e-05
-1.52467e-05
2.83154e-05
-1.61213e-05
2.66044e-05
-1.66004e-05
2.4628e-05
-1.68761e-05
1.7204e-05
1.00388e-05
-2.04606e-07
3.09282e-06
-8.19094e-07
9.81016e-06
-1.71239e-06
1.53139e-05
-2.77069e-06
1.96244e-05
-3.91154e-06
2.28223e-05
-5.08664e-06
2.50425e-05
-6.27131e-06
2.64623e-05
-7.45963e-06
2.72866e-05
-8.65159e-06
2.77416e-05
-9.85317e-06
2.80366e-05
-1.10719e-05
2.83277e-05
-1.23176e-05
2.86997e-05
-1.35999e-05
2.91223e-05
-1.48905e-05
2.95739e-05
-1.61907e-05
2.96491e-05
-1.73644e-05
2.94903e-05
-1.83902e-05
2.76312e-05
-1.8965e-05
2.52035e-05
-1.93103e-05
1.75497e-05
9.60585e-06
-2.37754e-07
3.33168e-06
-9.38159e-07
1.05117e-05
-1.95306e-06
1.633e-05
-3.15115e-06
2.08238e-05
-4.43538e-06
2.41079e-05
-5.74758e-06
2.6356e-05
-7.06063e-06
2.77768e-05
-8.37142e-06
2.85988e-05
-9.68751e-06
2.90592e-05
-1.1023e-05
2.93737e-05
-1.23946e-05
2.97008e-05
-1.38131e-05
3.01198e-05
-1.52858e-05
3.05965e-05
-1.67737e-05
3.10633e-05
-1.826e-05
3.11368e-05
-1.95862e-05
3.08177e-05
-2.07196e-05
2.87656e-05
-2.13478e-05
2.58326e-05
-2.17142e-05
1.79166e-05
9.24296e-06
-2.74045e-07
3.60689e-06
-1.06651e-06
1.13053e-05
-2.20955e-06
1.74743e-05
-3.55385e-06
2.21694e-05
-4.98828e-06
2.55437e-05
-6.44687e-06
2.7816e-05
-7.89817e-06
2.92296e-05
-9.34496e-06
3.00471e-05
-1.08014e-05
3.05172e-05
-1.229e-05
3.08638e-05
-1.38326e-05
3.12451e-05
-1.5441e-05
3.17297e-05
-1.71122e-05
3.22693e-05
-1.87975e-05
3.27502e-05
-2.04443e-05
3.2785e-05
-2.18905e-05
3.22652e-05
-2.30839e-05
2.996e-05
-2.37371e-05
2.64867e-05
-2.40862e-05
1.82661e-05
8.93644e-06
-3.14534e-07
3.92267e-06
-1.20722e-06
1.21993e-05
-2.4875e-06
1.87559e-05
-3.98658e-06
2.36699e-05
-5.57963e-06
2.71382e-05
-7.19219e-06
2.94301e-05
-8.79513e-06
3.08341e-05
-1.03923e-05
3.16459e-05
-1.20061e-05
3.21327e-05
-1.3666e-05
3.25254e-05
-1.53964e-05
3.29772e-05
-1.72047e-05
3.35397e-05
-1.90745e-05
3.41408e-05
-2.09412e-05
3.46185e-05
-2.27268e-05
3.45722e-05
-2.42679e-05
3.38078e-05
-2.54675e-05
3.11608e-05
-2.61052e-05
2.71253e-05
-2.6441e-05
1.86026e-05
8.67271e-06
-3.60463e-07
4.28445e-06
-1.36398e-06
1.32041e-05
-2.7933e-06
2.01866e-05
-4.45824e-06
2.53363e-05
-6.22021e-06
2.89018e-05
-7.99892e-06
3.12105e-05
-9.76618e-06
3.2603e-05
-1.15278e-05
3.34092e-05
-1.33165e-05
3.39232e-05
-1.51653e-05
3.4376e-05
-1.70976e-05
3.49114e-05
-1.9112e-05
3.55559e-05
-2.11738e-05
3.62045e-05
-2.31976e-05
3.66441e-05
-2.50877e-05
3.6464e-05
-2.6656e-05
3.53776e-05
-2.78587e-05
3.23647e-05
-2.84683e-05
2.77359e-05
-2.87839e-05
1.89189e-05
8.45029e-06
-4.13276e-07
4.69914e-06
-1.54093e-06
1.43332e-05
-3.13418e-06
2.17814e-05
-4.97864e-06
2.71824e-05
-6.92208e-06
3.08469e-05
-8.87942e-06
3.31695e-05
-1.08248e-05
3.45502e-05
-1.27675e-05
3.53538e-05
-1.47485e-05
3.59061e-05
-1.68021e-05
3.64315e-05
-1.89461e-05
3.70574e-05
-2.11654e-05
3.77771e-05
-2.34043e-05
3.84454e-05
-2.55585e-05
3.88001e-05
-2.75126e-05
3.84199e-05
-2.9088e-05
3.69545e-05
-3.02536e-05
3.35317e-05
-3.08298e-05
2.83132e-05
-3.11294e-05
1.92192e-05
8.26833e-06
-4.74757e-07
5.17539e-06
-1.74321e-06
1.56031e-05
-3.51854e-06
2.35583e-05
-5.55923e-06
2.92247e-05
-7.69907e-06
3.29885e-05
-9.84934e-06
3.53216e-05
-1.19867e-05
3.66894e-05
-1.41324e-05
3.75015e-05
-1.63192e-05
3.80949e-05
-1.85902e-05
3.87045e-05
-2.095e-05
3.94193e-05
-2.33652e-05
4.01945e-05
-2.5758e-05
4.08403e-05
-2.80079e-05
4.10519e-05
-2.99883e-05
4.04022e-05
-3.15419e-05
3.85098e-05
-3.2655e-05
3.46462e-05
-3.32021e-05
2.88614e-05
-3.34895e-05
1.95074e-05
8.12591e-06
-5.47043e-07
5.72403e-06
-1.9769e-06
1.70346e-05
-3.9562e-06
2.55393e-05
-6.21319e-06
3.14835e-05
-8.56702e-06
3.53442e-05
-1.09268e-05
3.76834e-05
-1.32738e-05
3.90384e-05
-1.56348e-05
3.98647e-05
-1.80457e-05
4.0508e-05
-2.05425e-05
4.12035e-05
-2.31151e-05
4.19941e-05
-2.5709e-05
4.27907e-05
-2.82256e-05
4.33591e-05
-3.05333e-05
4.33617e-05
-3.25065e-05
4.23775e-05
-3.40168e-05
4.00219e-05
-3.50706e-05
3.57016e-05
-3.55953e-05
2.93873e-05
-3.58749e-05
1.97877e-05
8.02087e-06
-6.32892e-07
6.35862e-06
-2.24998e-06
1.86534e-05
-4.45999e-06
2.77511e-05
-6.95698e-06
3.39824e-05
-9.54521e-06
3.79344e-05
-1.2133e-05
4.02732e-05
-1.4707e-05
4.16146e-05
-1.72992e-05
4.2459e-05
-1.99506e-05
4.31618e-05
-2.26714e-05
4.39266e-05
-2.54458e-05
4.47709e-05
-2.81935e-05
4.55407e-05
-3.07987e-05
4.59667e-05
-3.3127e-05
4.56923e-05
-3.50635e-05
4.43162e-05
-3.65162e-05
4.14766e-05
-3.75108e-05
3.66978e-05
-3.80198e-05
2.98977e-05
-3.82944e-05
2.00631e-05
7.94972e-06
-7.3629e-07
7.09673e-06
-2.57093e-06
2.04899e-05
-5.04421e-06
3.02263e-05
-7.80932e-06
3.67496e-05
-1.06554e-05
4.07826e-05
-1.34915e-05
4.31116e-05
-1.6311e-05
4.44364e-05
-1.91498e-05
4.53002e-05
-2.20453e-05
4.60598e-05
-2.49875e-05
4.68713e-05
-2.79454e-05
4.77315e-05
-3.0815e-05
4.84129e-05
-3.34706e-05
4.86248e-05
-3.57841e-05
4.80083e-05
-3.76611e-05
4.61955e-05
-3.90474e-05
4.28649e-05
-3.99865e-05
3.76388e-05
-4.04848e-05
3.03974e-05
-4.07553e-05
2.03345e-05
7.90799e-06
-8.61736e-07
7.96041e-06
-2.95256e-06
2.25827e-05
-5.72757e-06
3.30034e-05
-8.79352e-06
3.98178e-05
-1.19238e-05
4.39152e-05
-1.50301e-05
4.62202e-05
-1.81129e-05
4.75217e-05
-2.12094e-05
4.83993e-05
-2.43464e-05
4.91995e-05
-2.75042e-05
5.00318e-05
-3.06165e-05
5.08465e-05
-3.35706e-05
5.13698e-05
-3.62373e-05
5.12942e-05
-3.85044e-05
5.02779e-05
-4.03049e-05
4.79985e-05
-4.16203e-05
4.41826e-05
-4.25083e-05
3.85287e-05
-4.29973e-05
3.08878e-05
-4.32635e-05
2.06017e-05
7.89071e-06
-1.01576e-06
8.97824e-06
-3.41099e-06
2.498e-05
-6.53379e-06
3.61285e-05
-9.93845e-06
4.32247e-05
-1.33825e-05
4.73617e-05
-1.67818e-05
4.96221e-05
-2.01444e-05
5.0887e-05
-2.35064e-05
5.17641e-05
-2.68825e-05
5.25784e-05
-3.02429e-05
5.33952e-05
-3.34619e-05
5.40684e-05
-3.64592e-05
5.43701e-05
-3.90982e-05
5.39361e-05
-4.12915e-05
5.24741e-05
-4.30033e-05
4.97129e-05
-4.42457e-05
4.54273e-05
-4.50853e-05
3.93704e-05
-4.55632e-05
3.13674e-05
-4.58234e-05
2.08629e-05
7.89277e-06
-1.20731e-06
1.01878e-05
-3.96821e-06
2.77432e-05
-7.49348e-06
3.96561e-05
-1.12804e-05
4.70141e-05
-1.50703e-05
5.11543e-05
-1.87855e-05
5.334e-05
-2.24413e-05
5.45457e-05
-2.60699e-05
5.53956e-05
-2.96683e-05
5.61798e-05
-3.31771e-05
5.6907e-05
-3.64848e-05
5.73793e-05
-3.94812e-05
5.73696e-05
-4.20561e-05
5.65142e-05
-4.41526e-05
5.45736e-05
-4.57664e-05
5.13296e-05
-4.69335e-05
4.65969e-05
-4.77247e-05
4.01638e-05
-4.81874e-05
3.18318e-05
-4.84385e-05
2.11151e-05
7.90919e-06
-1.44954e-06
1.16397e-05
-4.65351e-06
3.09495e-05
-8.64614e-06
4.36513e-05
-1.2865e-05
5.12357e-05
-1.70354e-05
5.53275e-05
-2.10883e-05
5.73958e-05
-2.50459e-05
5.85063e-05
-2.89336e-05
5.92865e-05
-3.27293e-05
5.99788e-05
-3.63564e-05
6.05374e-05
-3.97133e-05
6.07395e-05
-4.26406e-05
6.03004e-05
-4.51173e-05
5.89942e-05
-4.70966e-05
5.65561e-05
-4.86042e-05
5.28401e-05
-4.96923e-05
4.76877e-05
-5.04321e-05
4.09058e-05
-5.08732e-05
3.22747e-05
-5.11113e-05
2.13544e-05
7.93526e-06
-1.76135e-06
1.34036e-05
-5.50514e-06
3.46959e-05
-1.00454e-05
4.81943e-05
-1.47533e-05
5.59464e-05
-1.93397e-05
5.99169e-05
-2.37479e-05
6.18071e-05
-2.80076e-05
6.27692e-05
-3.2135e-05
6.34173e-05
-3.60898e-05
6.3937e-05
-3.97802e-05
6.42315e-05
-4.30967e-05
6.40597e-05
-4.5942e-05
6.31493e-05
-4.82891e-05
6.13449e-05
-5.01338e-05
5.84041e-05
-5.15259e-05
5.42355e-05
-5.25287e-05
4.86935e-05
-5.32111e-05
4.15907e-05
-5.36229e-05
3.26884e-05
-5.38433e-05
2.1576e-05
7.96659e-06
-2.17164e-06
1.55779e-05
-6.57626e-06
3.91033e-05
-1.17615e-05
5.33825e-05
-1.70209e-05
6.12088e-05
-2.2059e-05
6.49582e-05
-2.68343e-05
6.65858e-05
-3.13845e-05
6.7323e-05
-3.57169e-05
6.77533e-05
-3.97766e-05
6.80005e-05
-4.34669e-05
6.79256e-05
-4.66971e-05
6.72937e-05
-4.94233e-05
6.58793e-05
-5.15817e-05
6.35071e-05
-5.32733e-05
6.00994e-05
-5.45386e-05
5.55042e-05
-5.54472e-05
4.96052e-05
-5.60639e-05
4.22101e-05
-5.64376e-05
3.30643e-05
-5.66353e-05
2.17751e-05
7.99914e-06
-2.72081e-06
1.83016e-05
-7.94956e-06
4.4335e-05
-1.39068e-05
5.93428e-05
-1.97874e-05
6.70927e-05
-2.53005e-05
7.04748e-05
-3.04369e-05
7.17258e-05
-3.52458e-05
7.21356e-05
-3.9727e-05
7.22384e-05
-4.38184e-05
7.20959e-05
-4.74324e-05
7.15437e-05
-5.05059e-05
7.03714e-05
-5.30175e-05
6.8395e-05
-5.50004e-05
6.5494e-05
-5.65219e-05
6.16249e-05
-5.76475e-05
5.66334e-05
-5.84497e-05
5.04107e-05
-5.89906e-05
4.27538e-05
-5.93173e-05
3.33932e-05
-5.94873e-05
2.19465e-05
8.02885e-06
-3.47429e-06
2.1779e-05
-9.72856e-06
5.05924e-05
-1.65863e-05
6.62039e-05
-2.31618e-05
7.36716e-05
-2.9178e-05
7.64947e-05
-3.4658e-05
7.72096e-05
-3.96696e-05
7.71512e-05
-4.42166e-05
7.67895e-05
-4.82451e-05
7.61286e-05
-5.16956e-05
7.49986e-05
-5.45379e-05
7.32181e-05
-5.68063e-05
7.06678e-05
-5.8575e-05
6.72671e-05
-5.9885e-05
6.29391e-05
-6.08542e-05
5.76065e-05
-6.15359e-05
5.10959e-05
-6.19902e-05
4.32111e-05
-6.22607e-05
3.36661e-05
-6.23977e-05
2.2085e-05
8.0527e-06
-4.53734e-06
2.63196e-05
-1.2142e-05
5.82005e-05
-2.01101e-05
7.41755e-05
-2.74269e-05
8.09922e-05
-3.38949e-05
8.29666e-05
-3.96362e-05
8.29551e-05
-4.47477e-05
8.2267e-05
-4.924e-05
8.12863e-05
-5.30835e-05
7.99767e-05
-5.62604e-05
7.81802e-05
-5.88004e-05
7.57627e-05
-6.0767e-05
7.26391e-05
-6.22561e-05
6.87608e-05
-6.33606e-05
6.40481e-05
-6.41569e-05
5.84069e-05
-6.47036e-05
5.16464e-05
-6.50599e-05
4.35707e-05
-6.52656e-05
3.38742e-05
-6.53646e-05
2.21856e-05
8.06778e-06
-6.07829e-06
3.24014e-05
-1.53022e-05
6.7428e-05
-2.45209e-05
8.3398e-05
-3.2677e-05
8.91523e-05
-3.96174e-05
8.99112e-05
-4.55156e-05
8.88578e-05
-5.05749e-05
8.73309e-05
-5.48473e-05
8.55634e-05
-5.8356e-05
8.34903e-05
-6.11432e-05
8.09724e-05
-6.32929e-05
7.79175e-05
-6.49119e-05
7.42631e-05
-6.60942e-05
6.9948e-05
-6.69484e-05
6.4907e-05
-6.75515e-05
5.90144e-05
-6.7948e-05
5.20469e-05
-6.81956e-05
4.38217e-05
-6.83284e-05
3.40097e-05
-6.8385e-05
2.2244e-05
8.07161e-06
-8.46221e-06
4.08674e-05
-2.0132e-05
7.91016e-05
-3.09137e-05
9.41838e-05
-3.96277e-05
9.78707e-05
-4.66999e-05
9.69878e-05
-5.24873e-05
9.465e-05
-5.72472e-05
9.20957e-05
-6.10752e-05
8.93966e-05
-6.40713e-05
8.64916e-05
-6.63378e-05
8.32442e-05
-6.80108e-05
7.95959e-05
-6.92127e-05
7.54703e-05
-7.00639e-05
7.08044e-05
-7.06378e-05
6.5486e-05
-7.10306e-05
5.9412e-05
-7.12624e-05
5.22829e-05
-7.13912e-05
4.39542e-05
-7.14445e-05
3.40659e-05
-7.14551e-05
2.22565e-05
8.06224e-06
-1.20489e-05
5.29204e-05
-2.61181e-05
9.3175e-05
-3.86513e-05
0.000106721
-4.82551e-05
0.000107479
-5.53654e-05
0.000104103
-6.06994e-05
9.9989e-05
-6.48293e-05
9.62309e-05
-6.79358e-05
9.25085e-05
-7.02184e-05
8.87797e-05
-7.18262e-05
8.48577e-05
-7.29372e-05
8.07126e-05
-7.36714e-05
7.62103e-05
-7.41463e-05
7.12849e-05
-7.44128e-05
6.57579e-05
-7.45808e-05
5.95851e-05
-7.46377e-05
5.23443e-05
-7.46394e-05
4.39598e-05
-7.46085e-05
3.4038e-05
-7.45703e-05
2.22203e-05
8.03826e-06
-1.89009e-05
7.18261e-05
-3.7802e-05
0.000112081
-5.1449e-05
0.000120373
-6.00424e-05
0.000116077
-6.60787e-05
0.000110145
-7.03427e-05
0.000104258
-7.33504e-05
9.92442e-05
-7.53902e-05
9.45542e-05
-7.67538e-05
9.01492e-05
-7.75672e-05
8.56771e-05
-7.80387e-05
8.11902e-05
-7.82521e-05
7.64296e-05
-7.83235e-05
7.13623e-05
-7.83139e-05
6.5754e-05
-7.8144e-05
5.94205e-05
-7.80606e-05
5.22657e-05
-7.79316e-05
4.38349e-05
-7.7814e-05
3.39237e-05
-7.77255e-05
2.21339e-05
7.99881e-06
-2.68208e-05
9.8661e-05
-4.95185e-05
0.000134787
-6.64086e-05
0.000137269
-7.46626e-05
0.000124337
-7.90922e-05
0.00011458
-8.13313e-05
0.000106503
-8.27568e-05
0.000100676
-8.33478e-05
9.51514e-05
-8.35928e-05
9.04006e-05
-8.34908e-05
8.55816e-05
-8.32605e-05
8.09664e-05
-8.29143e-05
7.60899e-05
-8.25506e-05
7.10049e-05
-8.21689e-05
6.53784e-05
-8.18255e-05
5.90828e-05
-8.15247e-05
5.19701e-05
-8.12609e-05
4.35755e-05
-8.10532e-05
3.37195e-05
-8.09147e-05
2.19976e-05
7.94364e-06
-5.05826e-05
0.000149372
-7.99228e-05
0.000164196
-9.28667e-05
0.000150232
-9.40345e-05
0.000125512
-9.42502e-05
0.000114802
-9.33427e-05
0.000105602
-9.26574e-05
9.99968e-05
-9.15582e-05
9.40587e-05
-9.05837e-05
8.94329e-05
-8.94935e-05
8.44983e-05
-8.85304e-05
8.00102e-05
-8.76063e-05
7.51726e-05
-8.68052e-05
7.02105e-05
-8.60973e-05
6.4677e-05
-8.55497e-05
5.85412e-05
-8.50077e-05
5.14336e-05
-8.46149e-05
4.31874e-05
-8.43185e-05
3.34267e-05
-8.41321e-05
2.18136e-05
7.87313e-06
-3.66732e-05
0.000185666
-8.66587e-05
0.000214469
-0.000118088
0.000181841
-0.000118358
0.000125812
-0.000111386
0.000107838
-0.000106134
0.000100358
-0.0001028
9.66693e-05
-9.97988e-05
9.10648e-05
-9.75384e-05
8.71796e-05
-9.54485e-05
8.24157e-05
-9.37577e-05
7.83267e-05
-9.22667e-05
7.36889e-05
-9.10391e-05
6.899e-05
-9.00008e-05
6.36456e-05
-8.91633e-05
5.77101e-05
-8.84769e-05
5.0753e-05
-8.79797e-05
4.26952e-05
-8.76029e-05
3.30538e-05
-8.73714e-05
2.15846e-05
7.78847e-06
1.20794e-05
0.000204536
-3.25916e-05
0.000254902
-0.000100647
0.000250567
-0.00012473
0.000150134
-0.000122549
0.000105686
-0.000117021
9.48391e-05
-0.000111913
9.15685e-05
-0.000107617
8.67764e-05
-0.000104164
8.37343e-05
-0.000101219
7.94787e-05
-9.88411e-05
7.59562e-05
-9.68336e-05
7.16892e-05
-9.52059e-05
6.73699e-05
-9.38672e-05
6.23141e-05
-9.28118e-05
5.66615e-05
-9.20273e-05
4.99747e-05
-9.13532e-05
4.20263e-05
-9.08974e-05
3.26022e-05
-9.06262e-05
2.13161e-05
7.69189e-06
-1.05676e-06
0.000244582
-1.01645e-05
0.000261102
-7.71649e-05
0.000316371
-0.000129832
0.000203872
-0.000132187
0.000108171
-0.000126599
8.92696e-05
-0.000119886
8.48649e-05
-0.000114812
8.17104e-05
-0.00011019
7.91196e-05
-0.000106693
7.59906e-05
-0.000103672
7.29436e-05
-0.00010125
6.92748e-05
-9.9257e-05
6.53851e-05
-9.76629e-05
6.07278e-05
-9.63984e-05
5.54042e-05
-9.54079e-05
4.89907e-05
-9.47082e-05
4.13322e-05
-9.41928e-05
3.20912e-05
-9.3892e-05
2.10182e-05
7.58529e-06
-1.82251e-05
0.000297791
-2.98255e-05
0.000270936
-7.57017e-05
0.000360313
-0.00013497
0.000265848
-0.0001415
0.000115083
-0.000134635
8.2434e-05
-0.000126693
7.69325e-05
-0.000121063
7.60894e-05
-0.000115688
7.37527e-05
-0.000111742
7.20536e-05
-0.000108184
6.93944e-05
-0.000105457
6.65563e-05
-0.000103152
6.30885e-05
-0.000101359
5.89429e-05
-9.99245e-05
5.39773e-05
-9.88477e-05
4.79209e-05
-9.80787e-05
4.05692e-05
-9.74861e-05
3.15031e-05
-9.71625e-05
2.06977e-05
7.47277e-06
-1.91239e-05
0.000349395
-5.07522e-05
0.000302691
-7.64301e-05
0.000384444
-0.000130691
0.000321954
-0.000146128
0.00013106
-0.000140463
7.68247e-05
-0.000132578
6.90589e-05
-0.000126252
6.97734e-05
-0.000120595
6.81047e-05
-0.000116227
6.76951e-05
-0.000112363
6.55397e-05
-0.000109397
6.35986e-05
-0.000106864
6.05651e-05
-0.000104928
5.70148e-05
-0.000103366
5.24243e-05
-0.00010222
4.67821e-05
-0.000101399
3.97546e-05
-0.000100772
3.08803e-05
-0.000100433
2.0362e-05
7.36063e-06
-1.77331e-05
0.000397509
-5.50623e-05
0.000340065
-7.17106e-05
0.000399552
-0.000121805
0.00037342
-0.000146794
0.000157072
-0.00014417
7.43127e-05
-0.000137202
6.21074e-05
-0.00013024
6.28212e-05
-0.000124864
6.27386e-05
-0.000120082
6.29227e-05
-0.000116199
6.16664e-05
-0.000113012
6.04212e-05
-0.000110383
5.79452e-05
-0.000108339
5.49809e-05
-0.000106711
5.08042e-05
-0.000105519
4.55985e-05
-0.000104655
3.88968e-05
-0.000104059
3.02893e-05
-0.0001037
2.00063e-05
7.25592e-06
-1.46587e-05
0.000440878
-5.21372e-05
0.000377688
-6.83017e-05
0.000414696
-0.000112054
0.000418742
-0.00014512
0.000191784
-0.000145951
7.53282e-05
-0.000140151
5.63308e-05
-0.000133456
5.61377e-05
-0.000128269
5.75615e-05
-0.000123395
5.80585e-05
-0.000119613
5.78948e-05
-0.000116301
5.71195e-05
-0.000113685
5.534e-05
-0.000111578
5.28837e-05
-0.000109949
4.9184e-05
-0.000108743
4.44e-05
-0.000107893
3.80541e-05
-0.000107364
2.97658e-05
-0.00010697
1.96158e-05
7.15787e-06
-1.1992e-05
0.000480213
-4.8483e-05
0.000414103
-6.4033e-05
0.000429874
-0.000101275
0.000458339
-0.000141168
0.000234018
-0.000146159
8.0586e-05
-0.000141725
5.19268e-05
-0.000135721
5.0146e-05
-0.000130916
5.27672e-05
-0.000126227
5.33808e-05
-0.000122575
5.4254e-05
-0.000119284
5.38391e-05
-0.000116746
5.28127e-05
-0.000114642
5.07896e-05
-0.00011307
4.76209e-05
-0.000111885
4.32241e-05
-0.000111066
3.7243e-05
-0.000110547
2.9252e-05
-0.000110232
1.93052e-05
7.06498e-06
-1.00583e-05
0.000516592
-4.52184e-05
0.000449071
-5.91289e-05
0.000443825
-9.21055e-05
0.000494152
-0.000135664
0.000280806
-0.000144954
9.02924e-05
-0.000142324
4.93398e-05
-0.000137521
4.53574e-05
-0.000132867
4.81248e-05
-0.000128625
4.91502e-05
-0.000125097
5.07372e-05
-0.000121983
5.07364e-05
-0.000119551
5.03917e-05
-0.000117537
4.87864e-05
-0.000116064
4.61582e-05
-0.000114951
4.21207e-05
-0.000114189
3.64889e-05
-0.000113753
2.88216e-05
-0.000113537
1.90939e-05
6.94589e-06
-8.70732e-06
0.000550846
-4.25678e-05
0.000482659
-5.49793e-05
0.000456617
-8.46886e-05
0.000527135
-0.000130607
0.000330629
-0.000143735
0.00010394
-0.000142544
4.81991e-05
-0.000138717
4.15465e-05
-0.000134241
4.36609e-05
-0.00013061
4.55316e-05
-0.000127215
4.73541e-05
-0.000124403
4.79368e-05
-0.000122098
4.80986e-05
-0.000120266
4.69658e-05
-0.000118927
4.48294e-05
-0.000117947
4.11499e-05
-0.000117297
3.58472e-05
-0.000116954
2.84857e-05
-0.000116759
1.89034e-05
6.89541e-06
-7.53904e-06
0.000583383
-4.02195e-05
0.000515049
-5.16191e-05
0.000468236
-7.83864e-05
0.000556405
-0.000124881
0.000381597
-0.000141784
0.000121555
-0.000142212
4.86983e-05
-0.00013928
3.8633e-05
-0.000135368
3.97616e-05
-0.000132178
4.23546e-05
-0.000129015
4.42041e-05
-0.000126533
4.54669e-05
-0.000124412
4.59901e-05
-0.000122829
4.53947e-05
-0.000121665
4.36763e-05
-0.000120876
4.03709e-05
-0.000120374
3.53548e-05
-0.000120158
2.82763e-05
-0.00012004
1.879e-05
6.87979e-06
-6.7205e-06
0.000614679
-3.84822e-05
0.000546547
-4.95663e-05
0.000480277
-7.37051e-05
0.000584664
-0.000119928
0.000432696
-0.000140303
0.000142777
-0.000141878
5.03522e-05
-0.000139515
3.6291e-05
-0.000136244
3.65041e-05
-0.00013334
3.94636e-05
-0.000130546
4.1424e-05
-0.000128366
4.32995e-05
-0.000126515
4.41522e-05
-0.00012522
4.41121e-05
-0.000124289
4.27578e-05
-0.000123743
3.98351e-05
-0.000123435
3.50559e-05
-0.000123372
2.82204e-05
-0.000123353
1.87761e-05
6.90247e-06
-5.86989e-06
0.00064488
-3.68516e-05
0.000577434
-4.82518e-05
0.000492116
-7.00959e-05
0.000607227
-0.000114613
0.000481039
-0.000138225
0.000167331
-0.000141307
5.35375e-05
-0.000139555
3.4563e-05
-0.000136827
3.37914e-05
-0.000134181
3.68312e-05
-0.00013181
3.90667e-05
-0.000129916
4.14193e-05
-0.000128418
4.26681e-05
-0.000127442
4.31493e-05
-0.000126816
4.21436e-05
-0.000126557
3.95881e-05
-0.000126505
3.50132e-05
-0.000126609
2.83318e-05
-0.000126712
1.88838e-05
6.96939e-06
-5.04556e-06
0.000673815
-3.52623e-05
0.000607478
-4.93656e-05
0.000506905
-6.90475e-05
0.000630516
-0.000110442
0.000529603
-0.000137056
0.000195379
-0.000141213
5.78273e-05
-0.000139674
3.30499e-05
-0.000137132
3.12656e-05
-0.000134741
3.44547e-05
-0.000132775
3.71153e-05
-0.00013121
3.98689e-05
-0.00013012
4.1593e-05
-0.000129507
4.25501e-05
-0.000129255
4.19042e-05
-0.000129328
3.96728e-05
-0.000129571
3.52664e-05
-0.000129884
2.86526e-05
-0.000130135
1.91395e-05
7.08897e-06
-3.16965e-06
0.000700562
-3.22699e-05
0.000636342
-5.14791e-05
0.000526031
-7.01057e-05
0.000649947
-0.000107987
0.000570173
-0.000136615
0.000224955
-0.000141167
6.24952e-05
-0.000139666
3.1577e-05
-0.000137198
2.88144e-05
-0.000135036
3.23083e-05
-0.000133425
3.55201e-05
-0.000132249
3.8708e-05
-0.000131621
4.09795e-05
-0.000131432
4.2376e-05
-0.000131619
4.21043e-05
-0.000132073
4.0139e-05
-0.000132653
3.58565e-05
-0.000133217
2.92254e-05
-0.000133647
1.95743e-05
7.26946e-06
-1.06518e-06
0.000725007
-2.95616e-05
0.000664635
-5.35517e-05
0.00054994
-7.29599e-05
0.000669636
-0.000107081
0.000607085
-0.000135949
0.000254765
-0.000140791
6.74746e-05
-0.000139326
3.01474e-05
-0.000136894
2.64004e-05
-0.000134964
3.03946e-05
-0.000133742
3.43146e-05
-0.000133029
3.80109e-05
-0.000132918
4.0884e-05
-0.000133234
4.27064e-05
-0.000133923
4.28075e-05
-0.000134818
4.10465e-05
-0.000135779
3.6829e-05
-0.000136636
3.0091e-05
-0.00013727
2.02143e-05
7.51685e-06
3.25712e-07
0.000747778
-2.79244e-05
0.000692845
-5.34471e-05
0.000575442
-7.34393e-05
0.000689262
-0.000105342
0.000640332
-0.000134771
0.000284868
-0.000139926
7.28095e-05
-0.000138475
2.87396e-05
-0.000136122
2.40684e-05
-0.000134468
2.8757e-05
-0.000133693
3.35559e-05
-0.000133522
3.78573e-05
-0.000134012
4.13893e-05
-0.000134929
4.36393e-05
-0.000136191
4.40838e-05
-0.000137593
4.2462e-05
-0.000138986
3.82332e-05
-0.000140174
3.12882e-05
-0.00014103
2.10767e-05
7.83739e-06
1.17476e-06
0.000769546
-2.63245e-05
0.000720469
-5.15781e-05
0.000600724
-7.10374e-05
0.000707967
-0.000102441
0.000671106
-0.000132742
0.000315629
-0.000138333
7.86538e-05
-0.000136886
2.73501e-05
-0.000134668
2.18728e-05
-0.000133425
2.7532e-05
-0.000133219
3.33668e-05
-0.000133724
3.83802e-05
-0.000134919
4.26008e-05
-0.00013654
4.52765e-05
-0.000138453
4.60123e-05
-0.000140434
4.4457e-05
-0.00014231
4.0121e-05
-0.000143868
3.28555e-05
-0.00014496
2.21749e-05
8.2362e-06
2.29505e-06
0.000790039
-2.43722e-05
0.000747409
-4.90321e-05
0.000625475
-6.66379e-05
0.000724275
-9.88894e-05
0.000700895
-0.000129728
0.000346845
-0.000135642
8.49479e-05
-0.000134284
2.60682e-05
-0.000132392
2.00073e-05
-0.000131751
2.69097e-05
-0.00013227
3.39041e-05
-0.000133616
3.97435e-05
-0.000135655
4.46575e-05
-0.000138098
4.77358e-05
-0.000140753
4.86838e-05
-0.000143385
4.7103e-05
-0.000145795
4.25435e-05
-0.000147759
3.48296e-05
-0.000149104
2.35258e-05
8.71764e-06
3.83314e-06
0.000808937
-2.20008e-05
0.000773608
-4.58096e-05
0.000649441
-6.08621e-05
0.000737498
-9.37828e-05
0.000729978
-0.000125175
0.000378698
-0.000131413
9.1776e-05
-0.000130354
2.51154e-05
-0.000129086
1.87702e-05
-0.000129322
2.71651e-05
-0.000130799
3.54004e-05
-0.000133199
4.21617e-05
-0.000136254
4.77309e-05
-0.000139647
5.11458e-05
-0.000143141
5.21949e-05
-0.000146495
5.04717e-05
-0.000149491
4.55518e-05
-0.000151893
3.72422e-05
-0.000153508
2.51477e-05
9.28716e-06
5.723e-06
0.000825915
-1.91668e-05
0.000798905
-4.21108e-05
0.000672579
-5.42617e-05
0.000747553
-8.64252e-05
0.000757165
-0.000118246
0.000411465
-0.000125081
9.9553e-05
-0.000124735
2.49207e-05
-0.000124541
1.86126e-05