/*--------------------------------*- C++ -*----------------------------------*\
| =========                 |                                                 |
| \\      /  F ield         | OpenFOAM: The Open Source CFD Toolbox           |
|  \\    /   O peration     | Version:  dev                                   |
|   \\  /    A nd           | Web:      www.OpenFOAM.org                      |
|    \\/     M anipulation  |                                                 |
\*---------------------------------------------------------------------------*/
FoamFile
{
    version     2.0;
    format      ascii;
    class       volScalarField;
    location    "100";
    object      T;
}
// * * * * * * * * * * * * * * * * * * * * * * * * * * * * * * * * * * * * * //

dimensions      [0 0 0 1 0 0 0];

internalField   nonuniform List<scalar> 
4000
(
292.999
292.999
292.998
292.998
292.998
292.998
292.998
292.998
292.998
292.997
292.997
292.997
292.997
292.997
292.997
292.997
292.997
292.997
292.997
292.997
292.999
292.997
292.996
292.996
292.995
292.995
292.994
292.994
292.993
292.993
292.993
292.993
292.992
292.992
292.992
292.991
292.991
292.991
292.992
292.994
292.998
292.996
292.994
292.993
292.992
292.991
292.99
292.99
292.989
292.989
292.988
292.988
292.987
292.987
292.986
292.986
292.986
292.986
292.987
292.991
292.998
292.995
292.992
292.99
292.989
292.988
292.987
292.986
292.985
292.984
292.984
292.983
292.982
292.982
292.981
292.981
292.98
292.98
292.982
292.988
292.997
292.993
292.99
292.988
292.986
292.984
292.983
292.982
292.981
292.98
292.979
292.978
292.977
292.977
292.976
292.975
292.975
292.976
292.978
292.986
292.997
292.992
292.988
292.985
292.983
292.981
292.979
292.978
292.976
292.975
292.974
292.973
292.972
292.971
292.971
292.97
292.97
292.971
292.975
292.985
292.996
292.991
292.987
292.983
292.98
292.978
292.976
292.974
292.972
292.971
292.97
292.969
292.968
292.967
292.966
292.965
292.966
292.968
292.972
292.984
292.996
292.99
292.985
292.981
292.977
292.975
292.972
292.97
292.969
292.967
292.965
292.964
292.963
292.962
292.961
292.961
292.962
292.964
292.97
292.984
292.996
292.989
292.983
292.979
292.975
292.972
292.969
292.967
292.965
292.963
292.961
292.96
292.959
292.958
292.957
292.958
292.959
292.962
292.969
292.984
292.996
292.988
292.982
292.977
292.972
292.969
292.966
292.964
292.961
292.959
292.958
292.956
292.955
292.954
292.954
292.954
292.956
292.961
292.969
292.984
292.995
292.988
292.981
292.975
292.97
292.966
292.963
292.961
292.958
292.956
292.954
292.953
292.951
292.951
292.951
292.952
292.955
292.96
292.97
292.985
292.995
292.987
292.979
292.973
292.968
292.964
292.961
292.958
292.955
292.953
292.951
292.949
292.948
292.948
292.948
292.95
292.954
292.961
292.971
292.986
292.995
292.986
292.978
292.972
292.966
292.962
292.958
292.955
292.952
292.95
292.948
292.946
292.946
292.946
292.947
292.949
292.954
292.962
292.973
292.987
292.995
292.985
292.977
292.97
292.964
292.959
292.956
292.952
292.949
292.947
292.945
292.944
292.943
292.944
292.946
292.949
292.955
292.963
292.974
292.988
292.994
292.985
292.976
292.969
292.962
292.957
292.953
292.95
292.947
292.945
292.943
292.942
292.942
292.943
292.945
292.95
292.956
292.965
292.976
292.989
292.994
292.984
292.975
292.967
292.961
292.955
292.951
292.948
292.945
292.942
292.941
292.94
292.941
292.942
292.946
292.951
292.958
292.967
292.978
292.99
292.994
292.984
292.974
292.966
292.959
292.954
292.949
292.946
292.943
292.941
292.939
292.939
292.94
292.943
292.947
292.952
292.96
292.969
292.98
292.991
292.994
292.983
292.973
292.965
292.958
292.952
292.947
292.944
292.941
292.939
292.938
292.938
292.94
292.943
292.948
292.954
292.962
292.971
292.981
292.992
292.994
292.983
292.972
292.964
292.956
292.95
292.946
292.942
292.939
292.938
292.937
292.938
292.941
292.944
292.95
292.957
292.965
292.974
292.983
292.992
292.994
292.982
292.972
292.962
292.955
292.949
292.944
292.941
292.938
292.937
292.937
292.939
292.942
292.946
292.952
292.959
292.967
292.975
292.984
292.993
292.993
292.982
292.971
292.961
292.954
292.947
292.943
292.939
292.937
292.937
292.937
292.939
292.943
292.948
292.954
292.961
292.969
292.977
292.985
292.993
292.993
292.981
292.97
292.96
292.952
292.946
292.942
292.939
292.937
292.937
292.938
292.941
292.945
292.95
292.956
292.964
292.971
292.979
292.986
292.994
292.993
292.981
292.969
292.959
292.951
292.945
292.941
292.938
292.937
292.937
292.939
292.942
292.947
292.952
292.959
292.966
292.973
292.98
292.987
292.994
292.993
292.98
292.968
292.958
292.95
292.944
292.94
292.937
292.937
292.938
292.94
292.944
292.949
292.955
292.961
292.968
292.975
292.982
292.988
292.995
292.993
292.98
292.968
292.957
292.949
292.943
292.939
292.937
292.937
292.939
292.942
292.946
292.951
292.957
292.964
292.97
292.977
292.983
292.989
292.995
292.992
292.979
292.967
292.956
292.948
292.943
292.939
292.938
292.938
292.94
292.944
292.948
292.954
292.96
292.966
292.972
292.978
292.984
292.99
292.995
292.992
292.978
292.966
292.955
292.947
292.942
292.939
292.938
292.939
292.942
292.946
292.951
292.956
292.962
292.968
292.974
292.98
292.985
292.99
292.995
292.992
292.978
292.965
292.955
292.947
292.942
292.939
292.939
292.94
292.943
292.948
292.953
292.959
292.964
292.97
292.976
292.981
292.986
292.991
292.996
292.992
292.977
292.964
292.954
292.946
292.941
292.939
292.94
292.942
292.946
292.95
292.956
292.961
292.967
292.972
292.977
292.982
292.987
292.991
292.996
292.991
292.976
292.963
292.953
292.946
292.942
292.94
292.941
292.944
292.948
292.953
292.958
292.963
292.969
292.974
292.979
292.983
292.987
292.992
292.996
292.991
292.976
292.962
292.952
292.945
292.942
292.941
292.943
292.946
292.95
292.955
292.961
292.966
292.971
292.976
292.98
292.984
292.988
292.992
292.996
292.991
292.975
292.961
292.951
292.945
292.942
292.942
292.944
292.948
292.953
292.958
292.963
292.968
292.973
292.977
292.981
292.985
292.989
292.992
292.996
292.99
292.974
292.96
292.951
292.945
292.943
292.944
292.947
292.951
292.955
292.96
292.965
292.97
292.974
292.979
292.982
292.986
292.989
292.993
292.996
292.99
292.973
292.959
292.95
292.945
292.944
292.946
292.949
292.953
292.958
292.963
292.968
292.972
292.976
292.98
292.983
292.987
292.99
292.993
292.997
292.99
292.972
292.959
292.95
292.946
292.946
292.948
292.951
292.956
292.96
292.965
292.97
292.974
292.978
292.981
292.984
292.987
292.99
292.993
292.997
292.99
292.972
292.958
292.95
292.947
292.947
292.95
292.954
292.958
292.963
292.968
292.972
292.976
292.979
292.982
292.985
292.988
292.991
292.994
292.997
293
292.979
292.961
292.951
292.948
292.949
292.952
292.957
292.961
292.966
292.97
292.974
292.977
292.98
292.983
292.986
292.988
292.991
292.994
292.997
293.078
293.028
292.977
292.956
292.951
292.952
292.955
292.959
292.964
292.968
292.972
292.975
292.979
292.981
292.984
292.987
292.989
292.991
292.994
292.997
293.711
293.371
293.079
292.982
292.958
292.956
292.958
292.962
292.966
292.97
292.974
292.977
292.98
292.983
292.985
292.987
292.989
292.992
292.994
292.997
299.735
296.065
293.733
293.12
292.987
292.963
292.962
292.965
292.969
292.973
292.976
292.979
292.981
292.984
292.986
292.988
292.99
292.992
292.994
292.997
364.302
321.321
298.584
293.931
293.116
292.985
292.968
292.968
292.972
292.975
292.978
292.98
292.982
292.984
292.986
292.988
292.99
292.992
292.995
292.997
841.984
521.434
333.655
298.59
293.709
293.061
292.979
292.972
292.974
292.977
292.979
292.981
292.983
292.985
292.987
292.989
292.991
292.993
292.995
292.997
1430.94
1120.25
475.774
316.46
295.656
293.261
293.003
292.977
292.976
292.978
292.98
292.982
292.984
292.986
292.988
292.989
292.991
292.993
292.995
292.997
1397.65
1777.28
689.898
346.334
298.962
293.689
293.059
292.986
292.979
292.98
292.982
292.984
292.985
292.987
292.988
292.99
292.991
292.993
292.995
292.997
1339.34
1889.47
867.473
379.768
303.316
294.189
293.122
292.995
292.982
292.982
292.983
292.985
292.986
292.987
292.989
292.99
292.992
292.993
292.995
292.998
1287.63
1868.16
1076.07
433.049
310.153
295.007
293.22
293.008
292.984
292.983
292.984
292.985
292.987
292.988
292.989
292.99
292.992
292.994
292.995
292.998
1251.57
1846.38
1236.48
500.469
320.265
296.263
293.375
293.028
292.988
292.984
292.985
292.986
292.987
292.988
292.99
292.991
292.992
292.994
292.996
292.998
1222.91
1821.4
1377.01
570.1
332.576
297.985
293.607
293.059
292.992
292.986
292.986
292.987
292.988
292.989
292.99
292.991
292.992
292.994
292.996
292.998
1198.98
1801
1504.52
646.223
348.167
300.183
293.903
293.098
292.998
292.987
292.987
292.987
292.988
292.989
292.99
292.991
292.993
292.994
292.996
292.998
1179.94
1785.44
1617.3
718.862
363.698
302.565
294.246
293.146
293.005
292.989
292.987
292.988
292.989
292.99
292.991
292.992
292.993
292.994
292.996
292.998
1163.01
1770.63
1721.1
799.273
384.773
305.78
294.686
293.205
293.013
292.99
292.988
292.989
292.989
292.99
292.991
292.992
292.993
292.994
292.996
292.998
1149.15
1759.33
1814.25
869.567
403.258
308.861
295.157
293.273
293.023
292.992
292.989
292.989
292.99
292.99
292.991
292.992
292.993
292.994
292.996
292.998
1136.38
1748.55
1897.71
947.431
430.166
313.431
295.796
293.358
293.034
292.994
292.989
292.989
292.99
292.991
292.991
292.992
292.993
292.995
292.996
292.998
1124.85
1740.42
1982.09
1019.22
452.115
317.246
296.403
293.45
293.047
292.996
292.99
292.99
292.99
292.991
292.992
292.993
292.994
292.995
292.996
292.998
1113.83
1730.3
2036.34
1090.61
483.334
323.213
297.293
293.572
293.064
292.998
292.991
292.99
292.991
292.991
292.992
292.993
292.994
292.995
292.996
292.998
1102.42
1714.91
2030.73
1142.37
508.651
328.477
298.141
293.694
293.08
293
292.991
292.99
292.991
292.991
292.992
292.993
292.994
292.995
292.996
292.998
1091.42
1699.29
2022.53
1189.72
536.353
334.809
299.138
293.836
293.099
293.003
292.992
292.991
292.991
292.992
292.992
292.993
292.994
292.995
292.996
292.998
1081.28
1683.78
2011.77
1232.45
564.584
341.662
300.227
293.991
293.12
293.006
292.992
292.991
292.991
292.992
292.993
292.993
292.994
292.995
292.996
292.998
1071.73
1667.96
1999.97
1275.33
593.807
349.034
301.404
294.159
293.143
293.009
292.993
292.991
292.992
292.992
292.993
292.993
292.994
292.995
292.997
292.998
1062.53
1651.69
1988.61
1320.46
624.281
357.021
302.677
294.34
293.168
293.012
292.993
292.992
292.992
292.992
292.993
292.994
292.994
292.995
292.997
292.998
1053.36
1634.82
1977.38
1367.86
657.047
365.816
304.049
294.533
293.194
293.016
292.994
292.992
292.992
292.992
292.993
292.994
292.994
292.995
292.997
292.998
1044.33
1617.18
1965.85
1418.27
692.799
375.553
305.518
294.738
293.221
293.019
292.995
292.992
292.992
292.993
292.993
292.994
292.995
292.996
292.997
292.998
1035.7
1599.78
1953.96
1471.69
731.293
386.464
307.074
294.951
293.25
293.023
292.995
292.992
292.992
292.993
292.993
292.994
292.995
292.996
292.997
292.998
1026.74
1582.51
1942.1
1526.92
774.694
398.715
308.676
295.171
293.279
293.027
292.996
292.993
292.993
292.993
292.994
292.994
292.995
292.996
292.997
292.998
1018.47
1565.69
1930.34
1584.1
823.126
411.4
310.257
295.394
293.31
293.031
292.996
292.993
292.993
292.993
292.994
292.994
292.995
292.996
292.997
292.998
1011.18
1551.84
1918.88
1643.25
873.012
425.161
311.886
295.624
293.341
293.034
292.997
292.993
292.993
292.993
292.994
292.994
292.995
292.996
292.997
292.998
1003.31
1538.72
1908.63
1697.01
923.433
438.407
313.439
295.854
293.372
293.038
292.998
292.993
292.993
292.994
292.994
292.995
292.995
292.996
292.997
292.999
997.384
1531.19
1900.16
1746.01
975.784
447.436
315.148
296.04
293.398
293.041
292.998
292.994
292.993
292.994
292.994
292.995
292.995
292.996
292.997
292.999
996.014
1532.28
1895.19
1789.89
1020.73
451.583
316.334
296.22
293.42
293.044
292.999
292.994
292.994
292.994
292.994
292.995
292.995
292.996
292.997
292.999
997.003
1535.63
1895.44
1807.83
1041.75
451.616
316.82
296.372
293.44
293.046
292.999
292.994
292.994
292.994
292.994
292.995
292.996
292.996
292.997
292.999
1000.15
1542.74
1897.46
1805.1
1041.65
448.759
316.583
296.486
293.465
293.05
293
292.994
292.994
292.994
292.995
292.995
292.996
292.996
292.997
292.999
1006.52
1554.33
1901.65
1792.07
1032
439.826
315.808
296.675
293.506
293.056
293
292.995
292.994
292.994
292.995
292.995
292.996
292.996
292.997
292.999
1018.63
1573.71
1910.23
1760.03
1003.25
424.228
315.588
296.998
293.576
293.067
293.002
292.995
292.994
292.995
292.995
292.995
292.996
292.997
292.998
292.999
1029.05
1596.1
1924.77
1699.13
940.851
407.574
316.549
297.606
293.702
293.086
293.004
292.995
292.995
292.995
292.995
292.995
292.996
292.997
292.998
292.999
1040.05
1611.31
1935.21
1628.43
853.183
394.746
319.359
298.622
293.895
293.116
293.008
292.996
292.995
292.995
292.995
292.996
292.996
292.997
292.998
292.999
1056.21
1635.03
1948.26
1533.32
753.56
390.298
325.418
300.358
294.193
293.164
293.014
292.996
292.995
292.995
292.995
292.996
292.996
292.997
292.998
292.999
1062.5
1657.35
1969.34
1428.98
686.426
395.627
336.864
303.192
294.66
293.242
293.023
292.997
292.995
292.995
292.996
292.996
292.996
292.997
292.998
292.999
1059.91
1656.59
1975.12
1393.55
675.635
415.173
353.487
307.623
295.318
293.354
293.038
292.999
292.995
292.995
292.996
292.996
292.996
292.997
292.998
292.999
1052.36
1640.82
1970.92
1409.72
695.865
456.341
388.083
315.785
296.314
293.509
293.057
293.001
292.996
292.996
292.996
292.996
292.997
292.997
292.998
292.999
1039.84
1601.04
1954.68
1489.3
780.155
539.36
444.011
328.496
298.013
293.752
293.088
293.004
292.996
292.996
292.996
292.996
292.997
292.997
292.998
292.999
1020.27
1542.08
1922.09
1610.84
919.402
650.658
524.46
346.859
300.528
294.072
293.128
293.008
292.996
292.996
292.996
292.996
292.997
292.997
292.998
292.999
995.219
1473.16
1871.18
1923.58
1210.49
806.871
624.456
370.421
304.139
294.496
293.172
293.011
292.997
292.996
292.996
292.996
292.997
292.997
292.998
292.999
959.758
1405.03
1796.49
2042.01
1437.74
943.38
722.555
393.069
308.299
295.081
293.218
293.015
292.997
292.996
292.996
292.997
292.997
292.997
292.998
292.999
916.154
1337.55
1719.11
2019.86
1765.59
1203.78
828.561
405.122
310.936
295.64
293.258
293.017
292.997
292.996
292.996
292.997
292.997
292.998
292.998
292.999
882.495
1290.73
1659.77
1991.69
2023.83
1531.98
866.055
401.888
311.381
295.937
293.289
293.018
292.998
292.996
292.997
292.997
292.997
292.998
292.998
292.999
869.074
1281.02
1628.36
1942.41
2122.97
1656.42
829.014
387.542
310.478
295.982
293.291
293.018
292.998
292.997
292.997
292.997
292.997
292.998
292.998
292.999
869.707
1286.65
1625.72
1918.52
2117.34
1653.22
744.114
369.162
308.915
295.861
293.276
293.018
292.998
292.997
292.997
292.997
292.997
292.998
292.998
292.999
880.161
1298.29
1635.26
1919.56
2110.03
1620.71
642.445
353.309
307.433
295.598
293.254
293.018
292.998
292.997
292.997
292.997
292.997
292.998
292.999
292.999
951.99
1311.12
1647.54
1929.28
2109.57
1567.68
560.256
342.025
306.109
295.262
293.243
293.02
292.999
292.997
292.997
292.997
292.997
292.998
292.999
292.999
1081.68
1341.94
1665.47
1943.79
2104.15
1487.47
491.528
334.206
304.842
294.973
293.245
293.029
293.002
292.998
292.997
292.997
292.998
292.998
292.999
292.999
1186.42
1380.24
1696.72
1956.19
2018.35
1325.48
435.785
328.406
303.387
294.827
293.273
293.054
293.012
293
292.998
292.997
292.998
292.998
292.999
292.999
1273.49
1415.46
1733.49
1968.87
1871.61
1087.97
394.805
324.192
302.113
294.8
293.373
293.119
293.039
293.009
293
292.998
292.998
292.998
292.999
292.999
1351.54
1454.06
1767.99
1985.73
1700.44
844.293
368.538
320.529
301.269
294.903
293.621
293.275
293.115
293.038
293.008
293
292.998
292.998
292.999
292.999
1427.31
1518.7
1832.57
2032.39
1499.09
653.053
354.839
317.546
300.975
295.36
294.166
293.648
293.317
293.124
293.036
293.007
292.999
292.998
292.999
292.999
1494.31
1600.91
1896.51
2055.07
1300.86
529.198
346.941
315.668
301.197
296.537
295.302
294.479
293.816
293.363
293.123
293.03
293.004
292.999
292.999
292.999
1547.82
1656.41
1915.97
1970.13
1099.77
456.187
341.928
315.277
302.55
299.005
297.602
296.242
294.964
293.965
293.365
293.099
293.02
293.002
292.999
292.999
1595.39
1709.1
1936.54
1756.73
921.041
416.18
340.087
316.28
306.391
303.998
302.215
299.798
297.418
295.35
293.969
293.287
293.06
293.009
293
293
1638.07
1756.52
1957.78
1582.72
778.838
395.168
340.486
320.558
314.461
312.775
310.44
306.764
302.529
298.398
295.372
293.737
293.159
293.03
293.003
293
1676.87
1799.45
1978.11
1424.78
666.372
387.18
344.319
331.568
329.166
328.235
325.283
319.149
311.635
304.103
298.173
294.589
293.367
293.078
293.011
293.001
1716.84
1852.5
2026.16
1268.13
584.456
386.712
354.636
347.693
347.996
349.631
347.795
338.849
326.953
314.047
303.132
295.832
293.764
293.187
293.029
293.003
1756.29
1902.76
2032.31
1149.09
535.724
390.203
374.842
373.462
375.978
380.486
378.744
365.513
346.589
327.849
311.17
297.943
294.47
293.415
293.07
293.008
1789.07
1931.36
1972.13
1061.7
517.362
402.405
400.04
402.221
416.112
425.333
416.484
399.4
378.591
352.368
325.853
301.385
295.825
293.852
293.152
293.019
1813.94
1947.99
1842.05
982.451
515.757
429.446
430.974
440.676
460.299
467.082
467.277
458.817
429.835
389.601
349.365
307.778
298.327
294.653
293.309
293.042
1833.94
1958.45
1743.74
921.739
518.925
457.852
461.732
480.877
494.06
523.336
552.346
542.557
501.667
443.36
385.29
319.958
302.864
296.038
293.59
293.086
1851.77
1974.33
1663.81
893.875
532.008
489.849
499.659
509.094
547.851
607.975
649.629
646.095
595.808
518.8
438.484
340.773
310.166
298.292
294.071
293.169
1867.54
1988.85
1617.1
891.612
563.845
517.213
524.1
554.076
616.689
694.046
754.669
760.73
714.751
619.648
509.446
377.119
321.436
301.79
294.854
293.316
1883.06
1994.4
1617.77
906.736
585.193
540.566
565.44
605.591
667.591
754.009
836.211
878.454
854.378
748.886
597.227
433.59
338.856
307.027
296.085
293.572
1886.32
1994.73
1644.16
936.643
615.75
587.191
616.55
646.902
697.242
788.088
899.918
986.116
997.498
901.709
717.115
505.942
364.345
314.508
297.904
293.994
1890.66
1993.11
1678.49
1000.66
677.965
640.835
661.493
682.203
720.099
807.476
936.336
1062.01
1123.16
1061.79
864.976
600.405
400.192
324.899
300.475
294.651
1892.03
1990.39
1745.17
1107.27
753.413
694.884
709.277
726.234
745.807
810.979
937.845
1092.22
1214.74
1210.68
1029.95
719.745
447.721
338.52
303.908
295.631
1890.98
1986.21
1943.42
1316.42
871.999
771.102
773.05
788.197
784.974
809.35
912.853
1077.75
1262.02
1333.67
1198.53
862.473
508.002
355.394
308.143
296.992
1885.54
1977.58
2035.7
1518.93
1071.2
900.26
863.146
874.094
852.58
822.167
882.572
1033.6
1266.77
1423.13
1354.13
1020.95
581.529
375.916
313.218
298.758
1872.75
1969.67
2035.65
1893.12
1422.33
1114.8
1000.84
988.669
959.069
868.074
866.776
983.132
1239.27
1479.79
1485.7
1186.34
665.402
399.605
319.135
301.015
1866.69
1946.14
2019.3
2049.63
1766.36
1416.72
1207.27
1142.58
1102.01
958.329
877.555
949.208
1193.88
1507.55
1589.02
1348.19
754.611
424.473
325.303
303.688
1850.53
1916.72
1992.01
2050.06
2047.2
1762.69
1478.46
1342.89
1278.51
1092.05
924.284
947.106
1151.77
1512.23
1662.43
1486.47
843.815
449.93
331.645
306.601
1834.39
1890.88
1947.27
2020.51
2075.66
2032.48
1783.76
1579.55
1482.35
1257.48
999.198
971.331
1134.18
1505.92
1710.72
1590.06
917.317
471.059
337.239
309.587
1818.34
1842.78
1901.63
1973.54
2049.53
2096.74
2036.06
1832.77
1697.78
1433.01
1092.77
1020.38
1144.79
1506.31
1746.9
1656.83
967.846
485.318
340.853
311.929
1811.39
1819.81
1860.91
1924.05
2005.79
2077.57
2119.41
2051.56
1902.26
1618.07
1220.43
1104.17
1197.52
1528.31
1785.3
1699.44
990.456
490.371
341.97
313.31
1814.79
1813.5
1818.34
1873.71
1943.81
2040.18
2107.22
2141.18
2063.57
1827.36
1378.3
1220.71
1291.07
1587.2
1831.76
1728.52
973.159
482.848
340.049
313.587
1826.04
1813.62
1802.12
1826.86
1894.04
1979.93
2076.71
2136.17
2156.99
1968.96
1526.61
1356.28
1417.74
1682.24
1885.05
1740.61
914.116
462.968
335.138
312.636
1727.3
1811.47
1794.08
1811.2
1859.88
1930.4
2023.5
2113.68
2156.56
2116.24
1788.43
1561.23
1595.79
1806.67
1939.86
1715.07
819.183
434.862
328.468
310.965
1617.83
1810.27
1792.35
1792.12
1831.07
1891.77
1974.93
2069.49
2141.72
2169.27
1947.2
1751.86
1779.74
1942.4
1989.49
1606.83
708.096
404.039
321.345
309.006
1595.86
1811.4
1794.34
1785.45
1806.49
1860.28
1932.3
2023.39
2110
2163.73
2142.25
1973.5
1973.74
2066.38
2029.96
1387.39
601.124
375.998
315.177
307.198
1617.01
1817.33
1801.54
1783.81
1791.59
1834.75
1896.74
1980.78
2066.56
2146.29
2186.2
2148.04
2142.57
2164.61
2024.56
1091.99
504.403
353.242
310.374
305.647
1676.32
1826.66
1813.44
1787.93
1787.29
1815.06
1867.5
1942.47
2025.05
2109.06
2170.74
2203.34
2207.33
2199.57
1874.03
820.354
434.772
337.142
306.992
304.291
1777.07
1839.91
1820.11
1797.03
1785.64
1800.5
1843.27
1908.18
1986.78
2068.63
2141.16
2187.02
2185.22
2180.44
1519.57
628.047
387.936
326.489
304.724
302.998
1843.91
1847.02
1823.56
1799.78
1785.66
1792.11
1822.66
1875.28
1945.2
2018.67
2079.62
2131.43
2154
2066.35
1041.65
490.575
359.072
320.01
303.147
301.676
1845.88
1846.87
1823.57
1801.68
1786.87
1790.85
1812.93
1853.09
1909.74
1971.6
2026.27
2086.03
2147.03
1710.37
696.263
423.055
344.923
316.088
301.918
300.463
1845.53
1846.68
1824.7
1806.43
1793.18
1795.25
1813.68
1849.59
1898.79
1955.39
2016.7
2084
2139.5
1095.64
547.878
395.439
337.92
313.315
300.872
299.426
1846.42
1848.48
1828.63
1814.27
1806.36
1804.76
1820.7
1855.41
1902.83
1960.07
2028.16
2107.38
1683.15
780.045
495.631
383.608
332.99
310.843
299.897
298.468
1848.99
1851.74
1833.34
1821.26
1814.26
1814.31
1832.08
1866.01
1913.27
1975.83
2056.67
2150.92
1203.79
698.85
483.45
377.097
328.983
308.704
299.034
297.63
1854.14
1857.36
1839.35
1828.45
1823.97
1826.8
1849.06
1885.29
1936.7
2011.33
2099.01
1948.06
1081.92
698.011
477.087
369.507
324.545
306.568
298.212
296.927
1863.07
1867.14
1850.16
1841.77
1841.78
1849.6
1877.16
1924.84
1995.19
2083.86
2157.84
1672.53
1099.92
700.703
460.07
357.746
319.373
304.523
297.516
296.396
1873.14
1874.75
1858.85
1855.31
1862.68
1883.87
1921.58
1973.58
2044.91
2112.15
2143.5
1672.33
1145.34
673.036
433.322
346.273
315.182
303.03
297.049
296.016
1793.74
1876.15
1866.06
1864.98
1874.94
1895.07
1935.42
1990.14
2062.19
2121.06
2085.44
1755.03
1117.12
613.302
405.785
335.968
311.685
301.849
296.693
295.678
1669
1876.68
1875.54
1877.98
1892.29
1918.52
1960.35
2015.99
2077.35
2121.85
2070.69
1734.02
962.122
523.013
373.22
325.84
308.688
300.865
296.368
295.332
1593.79
1878.17
1882.85
1887.25
1903.6
1932.72
1979.72
2029.71
2079.25
2116.72
2035.67
1534.1
748.609
441.958
348.762
318.792
306.53
300.025
296.039
294.954
1559.62
1879.27
1887.65
1893.41
1909.93
1941.49
1986.11
2033.52
2079.28
2111.85
1925.03
1067.66
544.976
382.486
332.647
314.245
304.916
299.248
295.693
294.544
1544.41
1880.48
1891.89
1899.63
1918.66
1951.64
1993.57
2038.94
2081.6
2065.88
1497.99
717.639
438.307
353.064
324.458
311.571
303.717
298.524
295.284
294.112
1539.25
1884.4
1899.07
1909.82
1933.82
1962.83
2003.45
2048.45
2089.55
1848.28
977.581
527.823
384.284
338.157
320.083
309.748
302.562
297.682
294.796
293.738
1536.95
1892.73
1911.05
1923.95
1946.42
1975.81
2016.39
2060.58
2025.5
1326.22
673.512
433.226
357.311
330.433
317.092
308.031
301.362
296.812
294.325
293.457
1525.86
1898.62
1920.09
1935.99
1957.75
1990.97
2033.12
2072.94
1732.38
908.373
516.382
386.339
343.756
325.873
314.953
306.5
299.956
295.79
293.841
293.238
1488.54
1906.39
1931.98
1949.24
1971.56
2007.84
2049.8
2001.15
1294.31
664.848
435.942
362.517
336.499
323.118
313.113
304.41
298.116
294.743
293.45
293.107
1441.08
1912.71
1943.29
1962.47
1987.97
2025.42
2058.47
1732.83
936.5
525.669
392.558
349.636
332.425
320.622
310.006
301.446
296.264
293.969
293.226
293.053
1386.61
1885.19
1947.89
1971.18
2002.71
2036.74
1987.9
1353.69
696.795
445.482
368.529
342.893
329.38
316.78
305.968
298.651
294.958
293.554
293.135
293.035
1329.87
1816.24
1950.27
1982.42
2014.17
2039.72
1784.96
995.794
544.054
398.986
355.888
338.716
324.51
311.478
302.065
296.713
294.305
293.377
293.093
293.027
1278.57
1751.33
1950.51
1990.41
2019.92
1955.84
1412.76
721.973
452.442
374.044
349.26
332.955
318.014
306.593
299.628
295.82
293.961
293.281
293.08
293.026
1221.01
1698.91
1946.8
1990.3
1990.64
1737.62
1010.01
547.547
402.724
361.884
342.364
325.588
312.527
303.972
298.35
295.114
293.727
293.236
293.073
293.022
1149.71
1636.46
1900.09
1956.14
1845.58
1356.71
711.428
451.645
378.474
352.901
334.243
319.807
309.548
301.739
296.928
294.616
293.605
293.21
293.067
293.019
1063.26
1535.61
1785.87
1817.89
1563.61
965.534
536.782
403.899
364.672
343.923
328.24
316.193
305.879
299.531
296.147
294.39
293.551
293.197
293.062
293.015
969.767
1403.04
1590.28
1545.32
1218.93
685.365
447.081
379.893
354.256
337.414
323.805
311.406
303.208
298.566
295.866
294.317
293.53
293.186
293.055
293.013
882.211
1268.14
1399.94
1302.1
899.783
527.481
403.099
365.967
346.512
333.009
317.833
308.697
302.245
298.358
295.863
294.31
293.506
293.171
293.05
293.01
806.192
1141.53
1221.23
1065.9
675.667
446.45
380.75
356.73
341.375
326.805
315.427
307.385
302.14
298.464
295.847
294.261
293.47
293.155
293.045
293.009
740.327
1025.09
1058.61
842.574
538.812
405.308
368.392
351.553
336.601
322.399
313.861
307.093
302.282
298.497
295.808
294.208
293.454
293.15
293.042
293.007
683.52
920.002
919.682
668.715
459.008
383.965
362.045
347.205
331.126
320.998
313.292
307.428
302.501
298.511
295.778
294.202
293.435
293.143
293.039
293.007
636.522
830.483
804.603
555.393
415.654
373.645
358.043
342.048
329.048
320.66
313.714
307.905
302.7
298.666
295.839
294.172
293.424
293.139
293.036
293.006
596.531
750.998
698.24
483.443
392.821
369.577
353.428
338.981
328.977
321.167
314.835
308.754
303.189
298.749
295.809
294.162
293.417
293.135
293.035
293.006
560.71
673.873
599.894
435.956
382.818
365.445
349.862
338.518
329.559
322.735
316.019
309.099
303.267
298.784
295.794
294.152
293.414
293.134
293.034
293.006
530.62
605.005
525.211
408.71
378.722
361.329
348.927
339.124
331.127
324.312
316.748
309.587
303.455
298.837
295.805
294.155
293.417
293.136
293.035
293.006
508.645
557.307
479.56
396.652
374.182
359.927
349.251
340.452
333.648
325.77
317.517
310.055
303.72
298.978
295.875
294.189
293.431
293.141
293.036
293.006
491.775
528.418
451.432
392.865
371.872
360.069
350.699
343.336
336.3
327.761
318.93
311.019
304.388
299.421
296.119
294.291
293.461
293.15
293.038
293.007
476.373
503.934
429.784
389.553
371.675
361.248
353.305
347.583
339.329
330.236
321.062
312.636
305.507
300.089
296.446
294.418
293.502
293.162
293.04
293.007
462.625
479.117
415.254
386.035
372.491
363.525
359.015
352.269
343.346
333.563
323.723
314.648
306.892
300.901
296.84
294.564
293.548
293.179
293.045
293.008
451.799
458.308
410.91
384.34
374.167
369.284
364.394
356.522
346.944
336.584
326.219
316.566
308.271
301.76
297.277
294.727
293.594
293.196
293.053
293.008
443.757
444.36
407.262
384.953
377.927
375.446
369.424
360.999
350.918
339.934
328.865
318.504
309.606
302.578
297.695
294.891
293.64
293.211
293.06
293.009
438.033
436.947
405.191
386.982
384.469
381.108
374.641
365.924
355.401
343.76
331.989
320.999
311.426
303.739
298.308
295.137
293.712
293.236
293.067
293.01
434.668
434.3
405.657
391.856
390.553
386.813
380.006
370.764
359.687
347.603
335.385
323.816
313.561
305.16
299.105
295.47
293.801
293.262
293.077
293.012
432.468
432.795
407.141
397.783
396.436
392.21
385.022
375.446
364.116
351.734
339.018
326.766
315.81
306.799
300.139
295.93
293.904
293.286
293.091
293.015
429.055
430.598
410.237
404.16
402.511
397.817
390.65
381.117
369.555
356.542
343.018
329.984
318.337
308.695
301.385
296.507
294.033
293.324
293.107
293.018
425.18
429.23
412.808
410.513
409.106
404.606
397.496
387.905
375.976
362.306
348.089
334.366
321.922
311.536
303.327
297.415
294.177
293.359
293.125
293.022
424.1
429.541
417.068
416.516
415.851
412.392
406.43
397.065
384.833
370.653
355.495
340.531
326.9
315.224
305.837
298.723
294.385
293.39
293.145
293.028
423.789
430.769
422.688
423.142
423.266
421.293
417.419
409.084
397.221
382.75
366.598
349.777
333.809
320.073
309.168
300.738
294.698
293.399
293.163
293.036
423.443
433.718
427.566
430.285
433.101
434.411
431.96
425.681
415.374
400.84
382.873
363.043
343.574
326.654
313.565
303.892
295.22
293.473
293.189
293.048
422.826
435.072
433.859
440.887
447.99
451.827
451.982
449.131
441.099
426.682
406.427
382.379
357.693
335.668
319.12
307.807
296.938
293.708
293.229
293.064
422.916
437.558
440.713
450.663
461.612
470.86
479.806
483.034
477.714
463.316
440.654
411.688
379.881
349.67
325.135
311.91
301.155
294.27
293.281
293.086
423.265
441.895
448.417
462.32
478.188
497.274
520.383
530.772
527.752
512.512
487.364
453.313
413.175
372.237
335.054
315.391
307.345
295.593
293.369
293.115
423.019
448.051
462.346
486.462
512.698
545.361
571.674
585.497
584.754
569.656
543.01
507.667
461.565
406.81
349.942
323.864
313.169
299.077
293.558
293.146
421.831
450.031
466.841
496.172
538.689
581.625
610.826
624.84
627.437
619.721
599.549
564.633
516.344
458.196
374.477
339.516
317.382
306.413
294.101
293.187
420.996
450.181
468.306
497.652
541.177
588.115
620.688
638.01
645.284
643.419
631.495
608.826
577.128
531.674
416.235
360.735
329.448
313.991
295.399
293.208
421.177
446.869
465.657
491.833
534.17
586.917
622.793
645.924
658.853
663.781
659.611
646.749
623.913
583.353
514.62
395.181
345.789
324.228
298.707
293.16
433.129
448.82
463.012
481.987
512.272
572.675
617.263
647.317
665.235
676.844
680.289
675.628
662.293
636.106
595.38
471.791
372.372
334.168
307.858
293.261
537.969
469.771
471.589
481.318
499.545
527.276
587.835
633.339
662.973
678.728
689.54
693.469
689.25
674.989
644.606
585.863
432.717
351.497
320.589
293.969
700.829
559.078
502.091
497.795
502.989
517.692
537.086
579.567
632.559
665.613
686.26
695.468
700.697
698.204
685.818
649.328
546.795
389.281
337.14
296.974
771.537
820.802
616.16
548.555
530.834
530.838
540.018
558.558
582.024
616.283
649.841
679.674
694.525
700.61
701.301
694.791
649.707
465.726
356.308
306.709
785.898
978.008
931.364
736.823
636.877
582.414
573.644
577.555
587.482
602.332
625.958
645.29