/*--------------------------------*- C++ -*----------------------------------*\
| =========                 |                                                 |
| \\      /  F ield         | OpenFOAM: The Open Source CFD Toolbox           |
|  \\    /   O peration     | Version:  dev                                   |
|   \\  /    A nd           | Web:      www.OpenFOAM.org                      |
|    \\/     M anipulation  |                                                 |
\*---------------------------------------------------------------------------*/
FoamFile
{
    version     2.0;
    format      ascii;
    class       volVectorField;
    location    "100";
    object      U;
}
// * * * * * * * * * * * * * * * * * * * * * * * * * * * * * * * * * * * * * //

dimensions      [0 1 -1 0 0 0 0];

internalField   nonuniform List<vector> 
4000
(
(0.000703 0.003386 0)
(0.00116155 0.00419888 0)
(0.000708758 0.00426874 0)
(0.000531302 0.00421411 0)
(0.000332867 0.00418765 0)
(0.000252514 0.00417472 0)
(0.000194918 0.00416783 0)
(0.000173922 0.00416378 0)
(0.000163955 0.00416178 0)
(0.000172535 0.00416002 0)
(0.000178095 0.004161 0)
(0.000206549 0.00415936 0)
(0.000206757 0.00416204 0)
(0.000260842 0.00415941 0)
(0.000235778 0.00416388 0)
(0.000336689 0.00415899 0)
(0.000273445 0.00416526 0)
(0.000465335 0.00415825 0)
(0.000352235 0.0041591 0)
(0.00085204 0.0041078 0)
(0.000448429 0.00289263 0)
(0.00113686 0.00415984 0)
(0.00104279 0.00453517 0)
(0.00089588 0.00445805 0)
(0.000604526 0.00436557 0)
(0.000403577 0.00427746 0)
(0.00023868 0.00422908 0)
(0.000137289 0.00419845 0)
(6.20345e-05 0.00418041 0)
(2.65631e-05 0.00416842 0)
(-1.07548e-05 0.00416236 0)
(-3.80882e-07 0.00415772 0)
(-3.9828e-05 0.00415661 0)
(2.59702e-05 0.00415377 0)
(-5.13921e-05 0.00415186 0)
(0.000117117 0.0041465 0)
(-1.91306e-05 0.00413774 0)
(0.000368987 0.00412076 0)
(0.000193688 0.00406724 0)
(0.00123128 0.00401101 0)
(0.000276859 0.00197645 0)
(0.000938657 0.00376168 0)
(0.00103625 0.00450809 0)
(0.000989762 0.00462261 0)
(0.000737399 0.00456923 0)
(0.000494388 0.00444962 0)
(0.000265645 0.00435341 0)
(9.86259e-05 0.00428045 0)
(-3.33101e-05 0.00423226 0)
(-0.000113931 0.00420171 0)
(-0.000191191 0.00417976 0)
(-0.00020471 0.00416982 0)
(-0.000274276 0.00415632 0)
(-0.000208063 0.00415531 0)
(-0.000316364 0.00413421 0)
(-0.000102978 0.00413297 0)
(-0.000274582 0.00408416 0)
(0.000255667 0.00405834 0)
(6.92157e-05 0.00390174 0)
(0.00142493 0.00377795 0)
(0.000144337 0.00155808 0)
(0.000620781 0.00340707 0)
(0.00086656 0.00441244 0)
(0.000900369 0.00472123 0)
(0.000726865 0.00475092 0)
(0.000494785 0.00463939 0)
(0.000244749 0.00451224 0)
(3.57345e-05 0.00440015 0)
(-0.00014036 0.00431714 0)
(-0.000262038 0.00426096 0)
(-0.000373957 0.00421737 0)
(-0.000415089 0.00419667 0)
(-0.000507546 0.00416576 0)
(-0.000453215 0.00416245 0)
(-0.000576331 0.0041173 0)
(-0.000347365 0.00411396 0)
(-0.000525517 0.00401346 0)
(8.39665e-05 0.00397215 0)
(-9.71334e-05 0.00369022 0)
(0.00140649 0.00351296 0)
(7.53852e-05 0.00124661 0)
(0.000394364 0.003095 0)
(0.000636248 0.00424794 0)
(0.000722536 0.00475275 0)
(0.000617116 0.00489113 0)
(0.000418744 0.0048212 0)
(0.000172435 0.00468515 0)
(-5.80076e-05 0.00454365 0)
(-0.000264474 0.00442673 0)
(-0.000420496 0.0043417 0)
(-0.000562289 0.00427336 0)
(-0.000632058 0.00423652 0)
(-0.000744093 0.00418563 0)
(-0.000707451 0.00417513 0)
(-0.00083863 0.00410224 0)
(-0.000611667 0.0040922 0)
(-0.000785829 0.0039342 0)
(-0.000147861 0.00387291 0)
(-0.000325391 0.0034596 0)
(0.0012421 0.00322673 0)
(4.0615e-05 0.00107152 0)
(0.000238905 0.00286706 0)
(0.000430833 0.00409522 0)
(0.000520737 0.00474612 0)
(0.000456689 0.00499445 0)
(0.000289254 0.00498417 0)
(5.72154e-05 0.00485905 0)
(-0.000181235 0.00470039 0)
(-0.000406954 0.00455452 0)
(-0.000590346 0.00444032 0)
(-0.000757504 0.0043462 0)
(-0.000855226 0.00428823 0)
(-0.00098515 0.00421713 0)
(-0.000970373 0.0041926 0)
(-0.00110717 0.00409313 0)
(-0.000894276 0.00406892 0)
(-0.00106399 0.00385381 0)
(-0.000437107 0.00376899 0)
(-0.000618525 0.00322263 0)
(0.000940466 0.00294653 0)
(2.29761e-05 0.000966651 0)
(0.000136832 0.002716 0)
(0.000263407 0.00398024 0)
(0.000326467 0.00473321 0)
(0.000275114 0.00507713 0)
(0.000126414 0.00513101 0)
(-9.19004e-05 0.00502906 0)
(-0.000332341 0.00486395 0)
(-0.000570485 0.00469564 0)
(-0.000775738 0.00455398 0)
(-0.000964976 0.00443427 0)
(-0.00108946 0.00435222 0)
(-0.00123785 0.0042603 0)
(-0.00124825 0.00421575 0)
(-0.00139164 0.00409274 0)
(-0.00120359 0.00404621 0)
(-0.00137289 0.00378037 0)
(-0.000787406 0.0036697 0)
(-0.000976251 0.00299316 0)
(0.000508549 0.00267021 0)
(1.42997e-05 0.000909124 0)
(6.84434e-05 0.00263157 0)
(0.000130299 0.00391475 0)
(0.000151141 0.00473634 0)
(8.96539e-05 0.00515633 0)
(-5.49219e-05 0.00526964 0)
(-0.000266348 0.00519593 0)
(-0.000508328 0.00503197 0)
(-0.000755921 0.00484724 0)
(-0.000979673 0.00468093 0)
(-0.00118884 0.00453627 0)
(-0.00133925 0.00442948 0)
(-0.0015078 0.00431519 0)
(-0.00154726 0.00424783 0)
(-0.00170135 0.00410176 0)
(-0.0015467 0.00402832 0)
(-0.00172419 0.00372084 0)
(-0.0011966 0.00357855 0)
(-0.001394 0.00278597 0)
(-2.49747e-05 0.00240985 0)
(9.81352e-06 0.000882389 0)
(2.05108e-05 0.00260198 0)
(2.3915e-05 0.00390075 0)
(-3.56586e-06 0.00476869 0)
(-9.07347e-05 0.00524594 0)
(-0.000244954 0.00540923 0)
(-0.000458442 0.0053635 0)
(-0.000704978 0.00520482 0)
(-0.000961997 0.0050081 0)
(-0.00120284 0.0048201 0)
(-0.00143093 0.0046518 0)
(-0.00160723 0.00452044 0)
(-0.00179768 0.0043835 0)
(-0.00187035 0.00429175 0)
(-0.00204162 0.00412241 0)
(-0.00192965 0.00402083 0)
(-0.00212491 0.00367909 0)
(-0.0016624 0.00349778 0)
(-0.00187336 0.00260629 0)
(-0.000635695 0.0021575 0)
(7.31451e-06 0.000877893 0)
(-1.50588e-05 0.00261792 0)
(-6.3173e-05 0.00393605 0)
(-0.000140152 0.0048374 0)
(-0.000262449 0.00535626 0)
(-0.000437494 0.00555846 0)
(-0.00066197 0.00553694 0)
(-0.000917894 0.00538449 0)
(-0.00118631 0.00517852 0)
(-0.00144432 0.00497133 0)
(-0.00169152 0.00478097 0)
(-0.00189448 0.00462567 0)
(-0.00210861 0.00446709 0)
(-0.00221871 0.00435059 0)
(-0.0024147 0.00415823 0)
(-0.00235545 0.00402918 0)
(-0.00257555 0.00365643 0)
(-0.00219093 0.00343186 0)
(-0.00242037 0.00245848 0)
(-0.00134312 0.00194223 0)
(5.78647e-06 0.000890147 0)
(-4.31969e-05 0.0026724 0)
(-0.000136758 0.00401744 0)
(-0.000262269 0.00494594 0)
(-0.000425211 0.00549445 0)
(-0.000629184 0.0057247 0)
(-0.000872572 0.0057216 0)
(-0.00114328 0.00557388 0)
(-0.00142621 0.00535984 0)
(-0.00170275 0.00513523 0)
(-0.00197033 0.00492444 0)
(-0.00220159 0.00474617 0)
(-0.00244179 0.00456784 0)
(-0.00259324 0.00442745 0)
(-0.00282285 0.00421364 0)
(-0.00282504 0.00405801 0)
(-0.00307794 0.00365645 0)
(-0.00278533 0.0033868 0)
(-0.00304277 0.00234955 0)
(-0.00216164 0.00175328 0)
(4.66144e-06 0.000916248 0)
(-6.70904e-05 0.00276099 0)
(-0.000201351 0.00414214 0)
(-0.000373846 0.00509552 0)
(-0.000580349 0.00566534 0)
(-0.000818866 0.00591383 0)
(-0.00108763 0.00592241 0)
(-0.00137842 0.00577638 0)
(-0.00167968 0.00555395 0)
(-0.00197706 0.00531305 0)
(-0.00226729 0.00508347 0)
(-0.00252934 0.0048837 0)
(-0.00279947 0.0046877 0)
(-0.0029964 0.00452565 0)
(-0.00326835 0.004293 0)
(-0.00333933 0.00411103 0)
(-0.00363475 0.00368399 0)
(-0.00344094 0.00336827 0)
(-0.00373485 0.00228355 0)
(-0.00304551 0.00159867 0)
(3.71608e-06 0.000954531 0)
(-8.85784e-05 0.00288056 0)
(-0.000260478 0.00430785 0)
(-0.000478253 0.00528661 0)
(-0.000729824 0.00587196 0)
(-0.00100691 0.00613125 0)
(-0.00130607 0.00614397 0)
(-0.00162188 0.00599548 0)
(-0.00194561 0.00576327 0)
(-0.00226682 0.00550679 0)
(-0.00258299 0.00525991 0)
(-0.00287932 0.00504065 0)
(-0.00318453 0.00482928 0)
(-0.00343268 0.00464806 0)
(-0.00375278 0.00440055 0)
(-0.00389868 0.00419228 0)
(-0.00424605 0.00374189 0)
(-0.00414869 0.00337982 0)
(-0.00448071 0.00225653 0)
(-0.00395542 0.00147646 0)
(2.83064e-06 0.00100427 0)
(-0.000108938 0.00302939 0)
(-0.000316685 0.00451315 0)
(-0.00057858 0.00551945 0)
(-0.000875354 0.00611596 0)
(-0.00119425 0.00637873 0)
(-0.00152874 0.0063897 0)
(-0.00187355 0.00623447 0)
(-0.00222385 0.005991 0)
(-0.0025725 0.00572015 0)
(-0.00291883 0.00545645 0)
(-0.00325387 0.00522009 0)
(-0.00360013 0.0049959 0)
(-0.00390584 0.00479811 0)
(-0.00427876 0.00453897 0)
(-0.00450273 0.00430516 0)
(-0.00490737 0.00383066 0)
(-0.00489902 0.00341698 0)
(-0.00525812 0.00226407 0)
(-0.00486102 0.00138118 0)
(1.81402e-06 0.00106524 0)
(-0.000129191 0.00320694 0)
(-0.000372023 0.0047575 0)
(-0.000677721 0.00579436 0)
(-0.00102074 0.00639923 0)
(-0.00138284 0.00665868 0)
(-0.00175538 0.00666255 0)
(-0.00213361 0.00649621 0)
(-0.00251436 0.00623938 0)
(-0.00289553 0.00595392 0)
(-0.0032777 0.00567593 0)
(-0.00365595 0.00542609 0)
(-0.00404957 0.00519118 0)
(-0.00441856 0.00497919 0)
(-0.00484867 0.00470991 0)
(-0.00515156 0.0044495 0)
(-0.00560846 0.00395009 0)
(-0.00567942 0.00347658 0)
(-0.00604823 0.00229504 0)
(-0.00574394 0.00130636 0)
(7.27059e-07 0.00113765 0)
(-0.000149976 0.00341357 0)
(-0.000428177 0.00504123 0)
(-0.000777887 0.00611215 0)
(-0.00116807 0.00672366 0)
(-0.0015751 0.00697544 0)
(-0.00198855 0.00696572 0)
(-0.00240415 0.00678399 0)
(-0.00282001 0.00651159 0)
(-0.0032378 0.00621104 0)
(-0.00366062 0.00592165 0)
(-0.00408863 0.00566111 0)
(-0.00453643 0.00541857 0)
(-0.00497272 0.00519396 0)
(-0.00546245 0.00491441 0)
(-0.00584162 0.004624 0)
(-0.00633938 0.0040958 0)
(-0.00647608 0.00355322 0)
(-0.00683707 0.00233915 0)
(-0.00659691 0.00124607 0)
(-5.01723e-07 0.00122224 0)
(-0.000171928 0.00365027 0)
(-0.000486608 0.0053654 0)
(-0.000881262 0.00647395 0)
(-0.00131972 0.00709062 0)
(-0.00177366 0.0073306 0)
(-0.00223082 0.00730208 0)
(-0.00268729 0.00710145 0)
(-0.00314287 0.00681214 0)
(-0.00360255 0.00649774 0)
(-0.00407219 0.00619796 0)
(-0.00455532 0.00592871 0)
(-0.00506274 0.00568088 0)
(-0.005569 0.00544413 0)
(-0.00611777 0.00515181 0)
(-0.00656602 0.00482561 0)
(-0.00709132 0.00426098 0)
(-0.00727672 0.00364065 0)
(-0.00761582 0.00238887 0)
(-0.00742035 0.00119595 0)
(-1.93458e-06 0.00132001 0)
(-0.000195666 0.00391887 0)
(-0.00054874 0.00573184 0)
(-0.000990072 0.00688148 0)
(-0.00147841 0.00750194 0)
(-0.00198142 0.00772617 0)
(-0.00248509 0.00767439 0)
(-0.00298597 0.00745183 0)
(-0.00348606 0.00714451 0)
(-0.00399329 0.00681726 0)
(-0.004516 0.00650912 0)
(-0.00505953 0.00623385 0)
(-0.00563075 0.00598041 0)
(-0.00620664 0.0057302 0)
(-0.00681069 0.00541902 0)
(-0.00731681 0.00504941 0)
(-0.00785546 0.00443869 0)
(-0.00807222 0.00373318 0)
(-0.00838083 0.0024375 0)
(-0.00821871 0.00115402 0)
(-3.64116e-06 0.00143237 0)
(-0.000221836 0.00422194 0)
(-0.00061605 0.00614321 0)
(-0.00110659 0.00733714 0)
(-0.00164703 0.00795989 0)
(-0.00220172 0.00816458 0)
(-0.00275486 0.00808575 0)
(-0.00330384 0.00783862 0)
(-0.00385355 0.00751261 0)
(-0.0044141 0.00717351 0)
(-0.00499571 0.00685883 0)
(-0.0056041 0.00657881 0)
(-0.00624132 0.0063183 0)
(-0.00688378 0.00605082 0)
(-0.00753599 0.005712 0)
(-0.00808574 0.00529035 0)
(-0.00862421 0.00462114 0)
(-0.00885783 0.00382636 0)
(-0.00913204 0.00248332 0)
(-0.00899751 0.00111822 0)
(-5.70854e-06 0.00156114 0)
(-0.000251187 0.00456285 0)
(-0.000690173 0.00660303 0)
(-0.00123331 0.00784405 0)
(-0.00182883 0.00846729 0)
(-0.00243818 0.00864865 0)
(-0.00304409 0.00853966 0)
(-0.00364534 0.00826546 0)
(-0.00424992 0.00792063 0)
(-0.00486947 0.00757068 0)
(-0.00551515 0.00725042 0)
(-0.00619137 0.00696504 0)
(-0.00689418 0.00669384 0)
(-0.00759708 0.00640222 0)
(-0.00828719 0.00602586 0)
(-0.00886599 0.00554138 0)
(-0.00939222 0.00480388 0)
(-0.00963107 0.00391611 0)
(-0.00987224 0.00252743 0)
(-0.00976293 0.00108733 0)
(-8.24397e-06 0.00170865 0)
(-0.000284565 0.00494588 0)
(-0.000772946 0.00711579 0)
(-0.00137302 0.00840617 0)
(-0.0020274 0.0090276 0)
(-0.0026948 0.00918186 0)
(-0.00335747 0.00903967 0)
(-0.00401558 0.00873626 0)
(-0.00468007 0.0083728 0)
(-0.00536407 0.00801265 0)
(-0.0060779 0.00768655 0)
(-0.0068229 0.00739313 0)
(-0.00758812 0.00710492 0)
(-0.00834231 0.00677966 0)
(-0.0090585 0.00635404 0)
(-0.00965154 0.00579495 0)
(-0.0101563 0.00498383 0)
(-0.0103932 0.00400082 0)
(-0.0106053 0.00256908 0)
(-0.0105202 0.00106166 0)
(-1.13757e-05 0.00187786 0)
(-0.00032302 0.00537654 0)
(-0.000866529 0.00768717 0)
(-0.00152891 0.00902845 0)
(-0.00224673 0.00964506 0)
(-0.00297628 0.00976817 0)
(-0.00370034 0.00958964 0)
(-0.00442011 0.00925589 0)
(-0.00514936 0.00887294 0)
(-0.0059026 0.00850271 0)
(-0.00668704 0.00816878 0)
(-0.00749934 0.00786212 0)
(-0.00832088 0.00754793 0)
(-0.00911491 0.00717765 0)
(-0.00984474 0.00669 0)
(-0.0104382 0.00604672 0)
(-0.0109157 0.00515684 0)
(-0.0111473 0.00408094 0)
(-0.0113355 0.00260861 0)
(-0.0112735 0.00104114 0)
(-1.52242e-05 0.00207249 0)
(-0.000367822 0.00586163 0)
(-0.000973524 0.00832391 0)
(-0.0017046 0.00971658 0)
(-0.00249144 0.0103244 0)
(-0.00328793 0.0104118 0)
(-0.00407818 0.0101937 0)
(-0.00486512 0.00982886 0)
(-0.00566386 0.00942484 0)
(-0.00648935 0.00904333 0)
(-0.00734508 0.00869726 0)
(-0.00822056 0.00836936 0)
(-0.00908957 0.0080177 0)
(-0.00991046 0.00758955 0)
(-0.0106417 0.00702724 0)
(-0.0112243 0.00629311 0)
(-0.0116718 0.005321 0)
(-0.011897 0.00415736 0)
(-0.0120667 0.0026468 0)
(-0.012026 0.00102554 0)
(-1.99565e-05 0.00229705 0)
(-0.000420589 0.00640862 0)
(-0.00109733 0.00903416 0)
(-0.00190473 0.0104778 0)
(-0.0027671 0.0110716 0)
(-0.00363612 0.0111179 0)
(-0.00449766 0.0108566 0)
(-0.00535729 0.0104589 0)
(-0.00622958 0.0100327 0)
(-0.00712873 0.00963537 0)
(-0.00805403 0.00927055 0)
(-0.00898578 0.00891055 0)
(-0.00989116 0.0085079 0)
(-0.0107254 0.00800844 0)
(-0.0114467 0.0073603 0)
(-0.0120098 0.00653119 0)
(-0.0124274 0.00547601 0)
(-0.0126463 0.00423112 0)
(-0.012802 0.00268419 0)
(-0.01278 0.0010145 0)
(-2.61769e-05 0.00255739 0)
(-0.000483292 0.00702746 0)
(-0.00124127 0.00982795 0)
(-0.00213452 0.0113202 0)
(-0.00308002 0.0118931 0)
(-0.00402788 0.011892 0)
(-0.00496624 0.0115833 0)
(-0.00590335 0.0111498 0)
(-0.00685277 0.0106992 0)
(-0.00782535 0.0102783 0)
(-0.00881506 0.0098855 0)
(-0.00979389 0.00947988 0)
(-0.0107228 0.00901144 0)
(-0.0115571 0.00842775 0)
(-0.0122586 0.00768511 0)
(-0.0127967 0.00675915 0)
(-0.0131859 0.0056223 0)
(-0.0133988 0.00430309 0)
(-0.0135439 0.00272102 0)
(-0.0135377 0.00100748 0)
(-3.4079e-05 0.00286113 0)
(-0.00055864 0.00773161 0)
(-0.00141054 0.0107174 0)
(-0.00240054 0.0122536 0)
(-0.00343787 0.0127965 0)
(-0.00447152 0.0127402 0)
(-0.00549239 0.0123788 0)
(-0.00651098 0.0119052 0)
(-0.00754006 0.0114245 0)
(-0.00858336 0.0109711 0)
(-0.0096291 0.0105371 0)
(-0.0106438 0.0100703 0)
(-0.0115824 0.00952086 0)
(-0.0124042 0.00884138 0)
(-0.0130783 0.00799821 0)
(-0.0135878 0.00697598 0)
(-0.0139508 0.00576058 0)
(-0.0141578 0.00437374 0)
(-0.0142942 0.00275735 0)
(-0.0143007 0.00100389 0)
(-4.42838e-05 0.00321767 0)
(-0.000650211 0.00853602 0)
(-0.0016115 0.0117168 0)
(-0.00271099 0.0132894 0)
(-0.00385001 0.0137905 0)
(-0.00497696 0.013669 0)
(-0.00608599 0.0132477 0)
(-0.00718932 0.0127275 0)
(-0.00829795 0.0122081 0)
(-0.00940644 0.0117116 0)
(-0.0104977 0.0112171 0)
(-0.0115345 0.0106738 0)
(-0.0124687 0.0100286 0)
(-0.0132667 0.00924401 0)
(-0.0139074 0.00829712 0)
(-0.0143866 0.00718125 0)
(-0.0147252 0.00589141 0)
(-0.0149257 0.00444304 0)
(-0.0150542 0.00279302 0)
(-0.0150702 0.00100307 0)
(-5.75656e-05 0.00363938 0)
(-0.000762991 0.0094599 0)
(-0.00185264 0.0128433 0)
(-0.00307623 0.0144405 0)
(-0.00432805 0.0148842 0)
(-0.00555606 0.0146849 0)
(-0.00675837 0.0141942 0)
(-0.00794795 0.0136181 0)
(-0.00913253 0.0130477 0)
(-0.0102994 0.012493 0)
(-0.0114229 0.011918 0)
(-0.0124646 0.0112818 0)
(-0.0133816 0.0105275 0)
(-0.0141459 0.00963115 0)
(-0.0147489 0.00858011 0)
(-0.0151965 0.00737468 0)
(-0.0155119 0.00601505 0)
(-0.0157042 0.00451054 0)
(-0.0158248 0.00282771 0)
(-0.0158471 0.00100438 0)
(-7.51896e-05 0.00414286 0)
(-0.000904126 0.0105283 0)
(-0.00214481 0.0141174 0)
(-0.00350949 0.0157223 0)
(-0.00488637 0.0160881 0)
(-0.00622332 0.0157945 0)
(-0.00752295 0.0152214 0)
(-0.00879823 0.0145762 0)
(-0.0100522 0.0139382 0)
(-0.0112664 0.0133053 0)
(-0.0124055 0.0126335 0)
(-0.0134353 0.0118828 0)
(-0.014322 0.0110108 0)
(-0.0150441 0.00999892 0)
(-0.0156058 0.00884576 0)
(-0.0160206 0.00755586 0)
(-0.0163125 0.00613126 0)
(-0.0164945 0.00457548 0)
(-0.0166064 0.00286092 0)
(-0.0166323 0.00100718 0)
(-9.94302e-05 0.00475033 0)
(-0.00108329 0.0117722 0)
(-0.00250201 0.0155622 0)
(-0.00402886 0.0171509 0)
(-0.00554381 0.0174125 0)
(-0.00699685 0.0170035 0)
(-0.00839578 0.0163307 0)
(-0.00975284 0.0155986 0)
(-0.0110656 0.0148723 0)
(-0.0123101 0.0141385 0)
(-0.0134483 0.0133512 0)
(-0.0144489 0.0124682 0)
(-0.0152904 0.0114726 0)
(-0.0159642 0.0103439 0)
(-0.016481 0.00909267 0)
(-0.0168613 0.007724 0)
(-0.0171284 0.00623934 0)
(-0.0172972 0.00463682 0)
(-0.0173992 0.00289205 0)
(-0.0174262 0.00101091 0)
(-0.000134624 0.00549328 0)
(-0.00131425 0.0132322 0)
(-0.00294321 0.0172119 0)
(-0.00465711 0.0187482 0)
(-0.0063234 0.0188695 0)
(-0.0078987 0.0183167 0)
(-0.00939584 0.0175209 0)
(-0.0108263 0.0166786 0)
(-0.0121823 0.015839 0)
(-0.0134364 0.0149793 0)
(-0.0145535 0.0140558 0)
(-0.0155065 0.0130325 0)
(-0.0162902 0.0119038 0)
(-0.0169091 0.0106631 0)
(-0.017377 0.00931911 0)
(-0.01772 0.00787787 0)
(-0.01796 0.00633818 0)
(-0.0181125 0.00469339 0)
(-0.018203 0.00292047 0)
(-0.0182287 0.0010149 0)
(-0.000186494 0.00641508 0)
(-0.00161666 0.0149526 0)
(-0.00349928 0.0190949 0)
(-0.00543204 0.0205299 0)
(-0.00725958 0.0204666 0)
(-0.00895828 0.0197348 0)
(-0.0105465 0.0187865 0)
(-0.012035 0.0178048 0)
(-0.0134123 0.0168231 0)
(-0.0146504 0.015812 0)
(-0.0157219 0.014734 0)
(-0.016611 0.0135645 0)
(-0.0173248 0.0123 0)
(-0.0178796 0.0109535 0)
(-0.0182955 0.00952296 0)
(-0.0185975 0.00801576 0)
(-0.0188072 0.00642639 0)
(-0.0189403 0.0047439 0)
(-0.0190175 0.00294552 0)
(-0.0190398 0.00101888 0)
(-0.000265102 0.00758144 0)
(-0.00202129 0.0170125 0)
(-0.00420172 0.0212722 0)
(-0.00638427 0.0225324 0)
(-0.00838579 0.0222144 0)
(-0.0102088 0.0212558 0)
(-0.0118742 0.0201161 0)
(-0.0133973 0.0189599 0)
(-0.0147661 0.0178043 0)
(-0.0159577 0.0166178 0)
(-0.0169571 0.0153706 0)
(-0.0177641 0.0140505 0)
(-0.0183954 0.0126587 0)
(-0.0188783 0.0112095 0)
(-0.0192371 0.00970188 0)
(-0.0194934 0.00813555 0)
(-0.0196694 0.00650234 0)
(-0.0197797 0.00478704 0)
(-0.019842 0.00296648 0)
(-0.0198591 0.00102242 0)
(-0.000384792 0.00908238 0)
(-0.00257951 0.0194678 0)
(-0.00514042 0.0237609 0)
(-0.00761168 0.024755 0)
(-0.00977628 0.0241108 0)
(-0.0116982 0.0228659 0)
(-0.0134123 0.0214889 0)
(-0.0149328 0.020118 0)
(-0.0162535 0.0187568 0)
(-0.0173625 0.0173744 0)
(-0.0182612 0.0159501 0)
(-0.0189656 0.0144807 0)
(-0.0195031 0.0129715 0)
(-0.0199061 0.0114279 0)
(-0.0202004 0.00985293 0)
(-0.020407 0.00823491 0)
(-0.0205453 0.00656435 0)
(-0.0206298 0.00482153 0)
(-0.0206753 0.00298264 0)
(-0.0206857 0.0010249 0)
(-0.0005837 0.0110616 0)
(-0.00335302 0.0225247 0)
(-0.00631737 0.0267238 0)
(-0.00912983 0.027247 0)
(-0.0114733 0.0261533 0)
(-0.0134782 0.0245404 0)
(-0.0151936 0.0228705 0)
(-0.0166607 0.0212427 0)
(-0.0178825 0.0196474 0)
(-0.018867 0.0180563 0)
(-0.0196344 0.0164557 0)
(-0.0202157 0.014845 0)
(-0.0206467 0.0132284 0)
(-0.020961 0.0116055 0)
(-0.0211842 0.00997286 0)
(-0.0213362 0.00831144 0)
(-0.0214332 0.00661071 0)
(-0.0214893 0.00484618 0)
(-0.0215163 0.00299338 0)
(-0.0215186 0.00102608 0)
(-0.00090102 0.0137795 0)
(-0.00453418 0.0261276 0)
(-0.00811043 0.0300021 0)
(-0.0112273 0.0299621 0)
(-0.0136183 0.0282888 0)
(-0.0156209 0.0262246 0)
(-0.0172582 0.0242081 0)
(-0.0185966 0.0222844 0)
(-0.0196567 0.0204373 0)
(-0.0204692 0.018635 0)
(-0.0210738 0.0168687 0)
(-0.0215122 0.0151324 0)
(-0.0218231 0.0134239 0)
(-0.0220389 0.0117356 0)
(-0.0221854 0.0100585 0)
(-0.0222787 0.00836275 0)
(-0.0223308 0.00663984 0)
(-0.0223561 0.00485994 0)
(-0.0223635 0.00299816 0)
(-0.0223567 0.0010257 0)
(-0.00149364 0.0175115 0)
(-0.00608838 0.0310165 0)
(-0.0102177 0.0341609 0)
(-0.0138101 0.032888 0)
(-0.0162716 0.0304465 0)
(-0.0181875 0.0278369 0)
(-0.0196283 0.025422 0)
(-0.0207482 0.0231798 0)
(-0.0215713 0.02108 0)
(-0.0221627 0.0190803 0)
(-0.022572 0.0171701 0)
(-0.0228483 0.0153306 0)
(-0.0230267 0.0135517 0)
(-0.0231352 0.0118137 0)
(-0.0231994 0.010108 0)
(-0.0232312 0.00838605 0)
(-0.0232351 0.00665064 0)
(-0.0232283 0.00486199 0)
(-0.023215 0.00299655 0)
(-0.0231985 0.00102355 0)
(-0.00253873 0.0232407 0)
(-0.00927399 0.0362744 0)
(-0.0141356 0.0382838 0)
(-0.0176042 0.0359795 0)
(-0.0196591 0.0325155 0)
(-0.021238 0.0292313 0)
(-0.0223293 0.0264164 0)
(-0.0231026 0.0238497 0)
(-0.0236101 0.0215276 0)
(-0.0239313 0.0193602 0)
(-0.0241163 0.0173429 0)
(-0.0242135 0.0154288 0)
(-0.0242485 0.0136056 0)
(-0.0242419 0.0118372 0)
(-0.0242217 0.0101096 0)
(-0.0241897 0.00838504 0)
(-0.0241428 0.00664155 0)
(-0.0241035 0.00485182 0)
(-0.0240689 0.00298825 0)
(-0.0240425 0.00101949 0)
(-0.00423077 0.031924 0)
(-0.0122334 0.0449521 0)
(-0.0184727 0.0439894 0)
(-0.0222935 0.0385869 0)
(-0.0238111 0.034073 0)
(-0.0248546 0.030223 0)
(-0.0253055 0.0270182 0)
(-0.0256347 0.0242051 0)
(-0.0257375 0.0217257 0)
(-0.0257515 0.0194464 0)
(-0.0256858 0.0173711 0)
(-0.0255927 0.0154176 0)
(-0.0254759 0.0135796 0)
(-0.0253561 0.0118024 0)
(-0.0252442 0.0100659 0)
(-0.025145 0.00835654 0)
(-0.0250528 0.00661181 0)
(-0.0249787 0.00482906 0)
(-0.0249233 0.00297318 0)
(-0.0248868 0.00101344 0)
(-0.00905191 0.0455408 0)
(-0.0222842 0.0522033 0)
(-0.0273969 0.0490209 0)
(-0.0289561 0.0408274 0)
(-0.0289256 0.0351286 0)
(-0.0288014 0.030474 0)
(-0.0285019 0.0271689 0)
(-0.0282444 0.024147 0)
(-0.0278951 0.0216438 0)
(-0.0275843 0.0193134 0)
(-0.0272531 0.0172454 0)
(-0.0269677 0.0152905 0)
(-0.0266957 0.0134695 0)
(-0.0264644 0.0117062 0)
(-0.0262588 0.00998974 0)
(-0.0260961 0.00828925 0)
(-0.0259596 0.00656301 0)
(-0.0258511 0.00479358 0)
(-0.0257758 0.00295151 0)
(-0.0257299 0.00100541 0)
(-0.000818986 0.0913724 0)
(-0.0240435 0.0762845 0)
(-0.0330274 0.0555511 0)
(-0.0382893 0.0393711 0)
(-0.0342941 0.0339469 0)
(-0.0332164 0.0296494 0)
(-0.0316467 0.0266059 0)
(-0.0308714 0.0236366 0)
(-0.0300001 0.021248 0)
(-0.0293887 0.0189564 0)
(-0.0287824 0.016961 0)
(-0.0283177 0.0150476 0)
(-0.027891 0.0132767 0)
(-0.0275536 0.01155 0)
(-0.0272617 0.00987352 0)
(-0.0270397 0.00819074 0)
(-0.0268561 0.00649738 0)
(-0.0267184 0.00474551 0)
(-0.0266244 0.00292359 0)
(-0.02657 0.000995497 0)
(0.0288628 0.208705 0)
(-0.00373419 0.159516 0)
(-0.0227342 0.0824266 0)
(-0.0400552 0.0435919 0)
(-0.0369902 0.0319186 0)
(-0.0367569 0.0278256 0)
(-0.0342972 0.0254943 0)
(-0.0333234 0.022673 0)
(-0.031949 0.0205719 0)
(-0.0311105 0.018376 0)
(-0.0302382 0.0165284 0)
(-0.02962 0.014693 0)
(-0.0290465 0.0130051 0)
(-0.0286146 0.011336 0)
(-0.0282429 0.00971403 0)
(-0.0279664 0.00807238 0)
(-0.0277409 0.00640828 0)
(-0.0275784 0.00468677 0)
(-0.0274665 0.00288995 0)
(-0.0274054 0.000983935 0)
(0.0119479 0.361841 0)
(-0.0109809 0.354123 0)
(-0.00780659 0.156556 0)
(-0.043512 0.0590855 0)
(-0.0394206 0.0324806 0)
(-0.0400034 0.026499 0)
(-0.0364785 0.023843 0)
(-0.0355695 0.0214761 0)
(-0.0336601 0.0196018 0)
(-0.0327227 0.0176395 0)
(-0.0315785 0.0159509 0)
(-0.0308572 0.0142434 0)
(-0.030145 0.0126606 0)
(-0.0296372 0.011072 0)
(-0.0291921 0.00951766 0)
(-0.028875 0.00793131 0)
(-0.0286119 0.00630416 0)
(-0.0284254 0.00461844 0)
(-0.0283007 0.00285147 0)
(-0.0282347 0.000970993 0)
(-0.0134003 0.459321 0)
(-0.0415499 0.552656 0)
(-0.0250565 0.27478 0)
(-0.0438444 0.0897088 0)
(-0.0437389 0.0342123 0)
(-0.0421725 0.0245443 0)
(-0.0385615 0.0219503 0)
(-0.0373705 0.0200679 0)
(-0.0351628 0.0184067 0)
(-0.0341562 0.0167888 0)
(-0.032796 0.0152464 0)
(-0.0320066 0.0137204 0)
(-0.0311741 0.0122515 0)
(-0.0306126 0.0107665 0)
(-0.0301043 0.00928828 0)
(-0.0297568 0.00776598 0)
(-0.0294633 0.00619391 0)
(-0.0292605 0.00453925 0)
(-0.0291248 0.00280963 0)
(-0.0290567 0.000957057 0)
(-0.0155599 0.510554 0)
(-0.0589481 0.664998 0)
(-0.0539659 0.379666 0)
(-0.040032 0.123342 0)
(-0.0469027 0.0380636 0)
(-0.0427522 0.0227373 0)
(-0.0405687 0.0196053 0)
(-0.0385354 0.0186321 0)
(-0.0365587 0.0170301 0)
(-0.0353243 0.015862 0)
(-0.0339037 0.014441 0)
(-0.0330404 0.0131478 0)
(-0.0321292 0.0117882 0)
(-0.0315303 0.0104313 0)
(-0.0309745 0.00903395 0)
(-0.0306066 0.00758782 0)
(-0.0302942 0.00607415 0)
(-0.030082 0.00445179 0)
(-0.0299365 0.00276588 0)
(-0.0298706 0.000942745 0)
(-0.0101464 0.550884 0)
(-0.0618135 0.736823 0)
(-0.0726367 0.484926 0)
(-0.0383003 0.166019 0)
(-0.0474775 0.0456375 0)
(-0.043133 0.0215985 0)
(-0.0421117 0.0176803 0)
(-0.0392147 0.0168965 0)
(-0.0378158 0.0156995 0)
(-0.0361896 0.0148246 0)
(-0.0349216 0.0136032 0)
(-0.0339265 0.0125295 0)
(-0.0330166 0.0112925 0)
(-0.0323768 0.0100747 0)
(-0.0318012 0.00876255 0)
(-0.0314196 0.00740123 0)
(-0.0311045 0.00594634 0)
(-0.0308872 0.00436445 0)
(-0.0307348 0.00272137 0)
(-0.0306757 0.000928391 0)
(-0.00454059 0.590016 0)
(-0.0567302 0.802659 0)
(-0.0804736 0.585528 0)
(-0.0402652 0.217046 0)
(-0.0460049 0.0573082 0)
(-0.0436266 0.0214407 0)
(-0.0425871 0.015947 0)
(-0.0398979 0.0151431 0)
(-0.0386506 0.0144334 0)
(-0.0368954 0.0137177 0)
(-0.0357871 0.0127832 0)
(-0.0346804 0.011871 0)
(-0.0338292 0.0107911 0)
(-0.0331466 0.00970189 0)
(-0.0325839 0.00848539 0)
(-0.0321925 0.00720988 0)
(-0.0318919 0.00581739 0)
(-0.031673 0.00428447 0)
(-0.0315219 0.00266829 0)
(-0.0314717 0.000916126 0)
(-0.000350915 0.627045 0)
(-0.0515261 0.867371 0)
(-0.0834915 0.678396 0)
(-0.0421616 0.273743 0)
(-0.043952 0.0727918 0)
(-0.0438832 0.0223925 0)
(-0.042559 0.0145514 0)
(-0.0403532 0.0134846 0)
(-0.0391311 0.0132429 0)
(-0.0374854 0.0126201 0)
(-0.0364647 0.0119905 0)
(-0.0353323 0.0111992 0)
(-0.0345503 0.0103008 0)
(-0.0338441 0.00932225 0)
(-0.0333185 0.0082138 0)
(-0.0329235 0.00701908 0)
(-0.032654 0.00569229 0)
(-0.0324446 0.00421029 0)
(-0.0322991 0.00261864 0)
(-0.0322555 0.00090626 0)
(0.00249993 0.660664 0)
(-0.0477357 0.929775 0)
(-0.0841425 0.766932 0)
(-0.0434319 0.336541 0)
(-0.0419918 0.092506 0)
(-0.0437943 0.0248185 0)
(-0.0421603 0.0136141 0)
(-0.0406808 0.012072 0)
(-0.0393357 0.0121235 0)
(-0.0379766 0.0115898 0)
(-0.0369574 0.0112284 0)
(-0.0359022 0.0105459 0)
(-0.0351678 0.00982946 0)
(-0.0344791 0.00894987 0)
(-0.0339995 0.00795626 0)
(-0.0336167 0.0068348 0)
(-0.0333904 0.00557302 0)
(-0.0331977 0.00414267 0)
(-0.0330648 0.00258515 0)
(-0.0330329 0.0008903 0)
(0.00442556 0.691543 0)
(-0.0451512 0.989143 0)
(-0.0837188 0.849668 0)
(-0.0443223 0.402512 0)
(-0.0403801 0.114736 0)
(-0.0435447 0.0284293 0)
(-0.0417026 0.0131272 0)
(-0.0408641 0.0110129 0)
(-0.0393609 0.0110087 0)
(-0.0383579 0.0106993 0)
(-0.0372932 0.0104865 0)
(-0.0363951 0.00994516 0)
(-0.0356808 0.00937922 0)
(-0.0350589 0.00860251 0)
(-0.0346228 0.00771863 0)
(-0.0342773 0.00666655 0)
(-0.0340981 0.00546685 0)
(-0.0339328 0.00408794 0)
(-0.0338249 0.002559 0)
(-0.0338042 0.000877926 0)
(0.00600211 0.720282 0)
(-0.0429018 1.04607 0)
(-0.0827502 0.929155 0)
(-0.0458203 0.474338 0)
(-0.0393094 0.14171 0)
(-0.0429337 0.0334758 0)
(-0.0412204 0.0130624 0)
(-0.040733 0.0101776 0)
(-0.0393935 0.00997968 0)
(-0.0385678 0.00993899 0)
(-0.037537 0.00977692 0)
(-0.0367928 0.00941349 0)
(-0.0361058 0.00895608 0)
(-0.0355821 0.00829572 0)
(-0.0351904 0.00750656 0)
(-0.0349085 0.00652479 0)
(-0.0347777 0.00538022 0)
(-0.0346545 0.0040483 0)
(-0.0345774 0.00253815 0)
(-0.0345732 0.000875515 0)
(0.00711321 0.747725 0)
(-0.0413815 1.10069 0)
(-0.0821947 1.00474 0)
(-0.0474542 0.544978 0)
(-0.0382947 0.169703 0)
(-0.0423408 0.039552 0)
(-0.0408645 0.0133615 0)
(-0.0405025 0.00949427 0)
(-0.0393898 0.00910633 0)
(-0.0386346 0.00925871 0)
(-0.0377165 0.00913372 0)
(-0.037086 0.00894679 0)
(-0.0364607 0.00857538 0)
(-0.0360431 0.00803855 0)
(-0.0357096 0.00732861 0)
(-0.0355106 0.00641841 0)
(-0.0354323 0.00531945 0)
(-0.0353662 0.0040294 0)
(-0.0353258 0.00252889 0)
(-0.0353429 0.000876178 0)
(0.00811907 0.773858 0)
(-0.0396745 1.15394 0)
(-0.0814927 1.07918 0)
(-0.0499945 0.6199 0)
(-0.0381091 0.203218 0)
(-0.0416149 0.047315 0)
(-0.0404768 0.0140713 0)
(-0.0402102 0.00898924 0)
(-0.0393176 0.00840535 0)
(-0.0386 0.00861986 0)
(-0.037832 0.0085825 0)
(-0.0372793 0.00853708 0)
(-0.0367546 0.00825562 0)
(-0.0364389 0.00783595 0)
(-0.0361885 0.00719639 0)
(-0.0360831 0.00635509 0)
(-0.0360675 0.00529252 0)
(-0.0360708 0.00403319 0)
(-0.036075 0.00253499 0)
(-0.0361177 0.000881749 0)
(0.00902586 0.798745 0)
(-0.0380194 1.20553 0)
(-0.0816205 1.15201 0)
(-0.0539632 0.692017 0)
(-0.0385336 0.236648 0)
(-0.0408861 0.0558965 0)
(-0.0403152 0.0151077 0)
(-0.0399794 0.00858097 0)
(-0.0391981 0.00778716 0)
(-0.0384924 0.00804712 0)
(-0.03786 0.00811935 0)
(-0.0373888 0.00818788 0)
(-0.0369876 0.00801006 0)
(-0.0367722 0.00769417 0)
(-0.0366325 0.0071224 0)
(-0.0366271 0.00634169 0)
(-0.0366911 0.00530774 0)
(-0.036772 0.00406325 0)
(-0.0368292 0.00255915 0)
(-0.0369035 0.000893623 0)
(0.0104773 0.82159 0)
(-0.0333725 1.25452 0)
(-0.0808026 1.22033 0)
(-0.0607068 0.764051 0)
(-0.0405514 0.274277 0)
(-0.0410364 0.0661658 0)
(-0.0402743 0.0163962 0)
(-0.0397501 0.00819854 0)
(-0.039014 0.00718383 0)
(-0.0383281 0.00753765 0)
(-0.0377991 0.00774224 0)
(-0.0374137 0.00790937 0)
(-0.0371562 0.00784835 0)
(-0.0370499 0.00762315 0)
(-0.0370436 0.00711818 0)
(-0.0371475 0.00638532 0)
(-0.0373096 0.00537126 0)
(-0.0374751 0.00412645 0)
(-0.0375945 0.00260513 0)
(-0.037707 0.000912935 0)
(0.0120727 0.840998 0)
(-0.02801 1.29843 0)
(-0.07875 1.27748 0)
(-0.0679669 0.828825 0)
(-0.04304 0.310107 0)
(-0.0407521 0.0767716 0)
(-0.0401214 0.0177672 0)
(-0.0394371 0.00783494 0)
(-0.0387316 0.00659995 0)
(-0.0380562 0.00707694 0)
(-0.0376443 0.00744138 0)
(-0.0373551 0.00771831 0)
(-0.0372546 0.00777894 0)
(-0.0372794 0.00763565 0)
(-0.0374239 0.00719442 0)
(-0.0376521 0.00649475 0)
(-0.0379295 0.00548926 0)
(-0.0381875 0.00422888 0)
(-0.0383789 0.00267764 0)
(-0.0385336 0.000940122 0)
(0.0127322 0.857523 0)