/*--------------------------------*- C++ -*----------------------------------*\
| =========                 |                                                 |
| \\      /  F ield         | OpenFOAM: The Open Source CFD Toolbox           |
|  \\    /   O peration     | Version:  dev                                   |
|   \\  /    A nd           | Web:      www.OpenFOAM.org                      |
|    \\/     M anipulation  |                                                 |
\*---------------------------------------------------------------------------*/
FoamFile
{
    version     2.0;
    format      ascii;
    class       volScalarField;
    location    "100";
    object      wallHeatFlux;
}
// * * * * * * * * * * * * * * * * * * * * * * * * * * * * * * * * * * * * * //

dimensions      [1 0 -3 0 0 0 0];

internalField   uniform 0;

boundaryField
{
    outlet
    {
        type            calculated;
        value           uniform 0;
    }
    inlet
    {
        type            calculated;
        value           uniform 0;
    }
    wall
    {
        type            calculated;
        value           uniform 0;
    }
    interface
    {
        type            calculated;
        value           nonuniform List<scalar> 
200
(
-0.0186543
-0.03355
-0.0448243
-0.0556307
-0.0661137
-0.0758961
-0.0848868
-0.0930509
-0.100527
-0.107406
-0.113765
-0.119652
-0.125157
-0.130311
-0.135154
-0.139778
-0.144239
-0.148508
-0.1527
-0.156826
-0.160965
-0.165109
-0.169334
-0.173665
-0.178166
-0.182906
-0.187979
-0.193482
-0.199538
-0.206307
-0.213999
-0.222856
-0.232972
-0.244393
-0.253065
-0.231576
0.0102368
1.87473
17.2088
163.007
1736.04
14978.8
37737.9
37004.2
34938.1
33018.8
31657
30562.5
29641.5
28906.5
28250.3
27712.1
27215.4
26765.9
26335.8
25889.2
25457.7
25060.3
24685.3
24324.2
23964.1
23609.1
23270.3
22918.7
22594.3
22308.4
22000.2
21768.9
21716
21755
21878.5
22128.8
22605
23015.4
23448.6
24087.2
24337.2
24235.6
23938.1
23444.3
22673.3
21688.9
20302.5
18612.4
17320.1
16808
16832.2
17231.1
18512.5
22763
26231.1
29118.5
31701.4
34200.9
36399.9
38145.1
39687.9
41060.4
42305.1
43586.1
44841.7
45878
46655.9
47267.2
47818.1
48310.1
48755.2
48847.2
48954
48973
48923.8
48723.9
48243.7
48018.8
47462.8
46916.6
46371.4
46109.1
46169.5
46488.9
42871.8
38986.8
38231.3
38978.4
41072.5
44668.5
47094.5
47206.1
47230
47278.7
47364
47518
47782.6
48076.7
45132.7
40646.9
38014.8
36834.9
36311.4
36129
36041.5
35654.1
34371.3
32759.9
30947.9
29096.3
27444.5
25616.6
23391.9
20749.7
17958.4
15411.4
13258.1
11437.5
9900.09
8649.56
7599.57
6670.23
5897.91
5338.17
4910.36
4521.02
4174.74
3903.17
3702.42
3560.02
3476.2
3420.91
3335.29
3238.45
3211.49
3203.61
3194.81
3179.24
3181.37
3189.97
3183.9
3154.6
3134.1
3138.97
3437.39
6089.72
10368.4
12284
12669.9
11571.7
8034.45
4940.36
2538.91
2177.91
2180.95
2342.11
2810.84
3211.33
3399.97
3481.74
3501.73
3415.93
3332.37
2407.02
)
;
    }
    frontAndback
    {
        type            empty;
    }
}


// ************************************************************************* //
